 Gaussian 16, Revision A.03,
 Gaussian 16:  ES64L-G16RevA.03 25-Dec-2016

 -------------------
 # hf/6-31G(d) force
 -------------------

 -----------------
 Force calculation
 -----------------
 Symbolic Z-matrix:
 Charge =  0 Multiplicity = 1

                         Standard orientation:
 ---------------------------------------------------------------------
 Center     Atomic      Atomic             Coordinates (Angstroms)
 Number     Number       Type             X           Y           Z
 ---------------------------------------------------------------------
      1          6           0        1.288595   -0.234419    0.001238
      2          6           0        0.002701    0.600392    0.002189
      3          6           0       -1.292349   -0.227286    0.000190
      4          9           0       -1.553686   -0.662708    1.208139
      5          9           0        2.310808    0.535920    0.284384
      6          9           0        1.475311   -0.772186   -1.180106
      7          9           0        0.001811    1.372630    1.079641
      8          9           0        0.016301    1.366890   -1.079437
      9          9           0       -2.289279    0.516189   -0.410044
     10          9           0       -1.172874   -1.258503   -0.805717
     11          9           0        1.212309   -1.190692    0.900729
 ---------------------------------------------------------------------

 SCF Done:  E(RHF) =  -909.124309333     A.U. after   11 cycles

 The electronic state is 1-A.
 Alpha  occ. eigenvalues --  -26.37995 -26.37968 -26.37747 -26.37729 -26.37728
 Alpha  occ. eigenvalues --  -26.37704 -26.37467 -26.37446 -11.54740 -11.54698
 Alpha  occ. eigenvalues --  -11.47943  -1.78913  -1.77817  -1.73205  -1.68339
 Alpha  occ. eigenvalues --   -1.67803  -1.67598  -1.67506  -1.66253  -1.12498
 Alpha  occ. eigenvalues --   -1.02644  -0.95633  -0.90823  -0.88954  -0.87709
 Alpha  occ. eigenvalues --   -0.86567  -0.85596  -0.85524  -0.81463  -0.76228
 Alpha  occ. eigenvalues --   -0.75478  -0.74258  -0.74183  -0.73567  -0.73180
 Alpha  occ. eigenvalues --   -0.71865  -0.70263  -0.70210  -0.68477  -0.68448
 Alpha  occ. eigenvalues --   -0.68038  -0.67536  -0.67322  -0.63277  -0.55977
 Alpha virt. eigenvalues --    0.25409   0.25578   0.37031   0.39019   0.41977
 Alpha virt. eigenvalues --    0.44319   0.46895   0.49819   0.51528   0.55765
 Alpha virt. eigenvalues --    0.64274   0.64878   0.69010   0.69104   0.71340

 Mulliken charges:
               1
     1  C    1.085433
     2  C    0.593883
     3  C    1.082838
     4  F   -0.335713
     5  F   -0.341007
     6  F   -0.337870
     7  F   -0.361257
     8  F   -0.361755
     9  F   -0.339113
    10  F   -0.342373
    11  F   -0.343065
 Sum of Mulliken charges =  -0.00000

 Dipole moment (field-independent basis, Debye):
    X=             -0.0145    Y=             -0.0641    Z=              0.0072  Tot=              0.0661
 Quadrupole moment (field-independent basis, Debye-Ang):
   XX=            -56.7819   YY=            -57.2483   ZZ=            -57.2754
   XY=             -0.0333   XZ=              0.0246   YZ=              0.0073

 Normal termination of Gaussian 16 at Mon Sep 15 21:53:37 2025.
