 Gaussian 16, Revision A.03,
 Gaussian 16:  ES64L-G16RevA.03 25-Dec-2016

 -------------------
 # hf/6-31G(d) force
 -------------------

 -----------------
 Force calculation
 -----------------
 Symbolic Z-matrix:
 Charge =  0 Multiplicity = 1

                         Standard orientation:
 ---------------------------------------------------------------------
 Center     Atomic      Atomic             Coordinates (Angstroms)
 Number     Number       Type             X           Y           Z
 ---------------------------------------------------------------------
      1          6           0        2.327319    0.160577   -0.207078
      2          6           0        0.962551    0.220753    0.451227
      3          6           0       -2.101395    0.599824   -0.143211
      4          6           0       -1.239927   -0.619859    0.157962
      5          1           0        2.648433   -0.869240   -0.314929
      6          1           0        3.062419    0.692471    0.389111
      7          1           0        2.292351    0.610176   -1.192912
      8          1           0        0.642063    1.255516    0.552635
      9          1           0        1.006287   -0.204781    1.453344
     10          1           0       -2.110312    0.797831   -1.209468
     11          1           0       -3.123060    0.425270    0.181479
     12          1           0       -1.740478    1.488052    0.364058
     13          1           0       -1.221040   -0.815474    1.229061
     14          1           0       -1.665114   -1.492380   -0.322565
     15          8           0        0.064645   -0.506901   -0.335402
 ---------------------------------------------------------------------

 SCF Done:  E(RHF) =  -232.142215672     A.U. after   12 cycles

 The electronic state is 1-A.
 Alpha  occ. eigenvalues --  -20.54990 -11.26817 -11.26788 -11.21063 -11.20836
 Alpha  occ. eigenvalues --   -1.37456  -1.04080  -0.98591  -0.86172  -0.81336
 Alpha  occ. eigenvalues --   -0.67228  -0.64592  -0.64524  -0.57463  -0.54949
 Alpha  occ. eigenvalues --   -0.54419  -0.52367  -0.50217  -0.48721  -0.45676
 Alpha  occ. eigenvalues --   -0.40757
 Alpha virt. eigenvalues --    0.23499   0.26134   0.28081   0.29369   0.31637
 Alpha virt. eigenvalues --    0.32151   0.32707   0.33938   0.34474   0.36204
 Alpha virt. eigenvalues --    0.38131   0.41753   0.42901   0.46023   0.69953

 Mulliken charges:
               1
     1  C   -0.487252
     2  C    0.021184
     3  C   -0.500488
     4  C    0.016920
     5  H    0.173551
     6  H    0.154194
     7  H    0.172685
     8  H    0.137010
     9  H    0.135688
    10  H    0.174238
    11  H    0.156496
    12  H    0.160914
    13  H    0.136161
    14  H    0.169228
    15  O   -0.620529
 Sum of Mulliken charges =  -0.00000

 Dipole moment (field-independent basis, Debye):
    X=             -0.3900    Y=              0.5856    Z=              1.1258  Tot=              1.3276
 Quadrupole moment (field-independent basis, Debye-Ang):
   XX=            -31.0508   YY=            -33.4772   ZZ=            -33.5198
   XY=              1.2259   XZ=              0.4382   YZ=             -0.4658

 Normal termination of Gaussian 16 at Mon Sep 15 21:32:59 2025.
