 Gaussian 16, Revision A.03,
 Gaussian 16:  ES64L-G16RevA.03 25-Dec-2016

 -------------------
 # hf/6-31G(d) force
 -------------------

 -----------------
 Force calculation
 -----------------
 Symbolic Z-matrix:
 Charge =  0 Multiplicity = 1

                         Standard orientation:
 ---------------------------------------------------------------------
 Center     Atomic      Atomic             Coordinates (Angstroms)
 Number     Number       Type             X           Y           Z
 ---------------------------------------------------------------------
      1          6           0        1.314470    0.212790   -0.000264
      2          6           0       -0.015734   -0.594986    0.001864
      3          6           0       -1.293020    0.251863    0.001717
      4          9           0       -1.371999    0.958722   -1.099912
      5          9           0        2.091188   -0.200346   -0.969657
      6          9           0        1.941925    0.056412    1.138785
      7          9           0       -0.056296   -1.362036   -1.077368
      8          9           0       -0.046320   -1.369014    1.076038
      9          9           0       -2.329693   -0.548644    0.064637
     10          9           0       -1.315100    1.055798    1.037673
     11          9           0        1.082484    1.495997   -0.172408
 ---------------------------------------------------------------------

 SCF Done:  E(RHF) =  -909.120246254     A.U. after   11 cycles

 The electronic state is 1-A.
 Alpha  occ. eigenvalues --  -26.37914 -26.37874 -26.37737 -26.37652 -26.37629
 Alpha  occ. eigenvalues --  -26.37533 -26.37336 -26.37314 -11.54931 -11.54549
 Alpha  occ. eigenvalues --  -11.48064  -1.78904  -1.77817  -1.73224  -1.68306
 Alpha  occ. eigenvalues --   -1.67765  -1.67659  -1.67342  -1.66054  -1.12098
 Alpha  occ. eigenvalues --   -1.02506  -0.95537  -0.90981  -0.88841  -0.87612
 Alpha  occ. eigenvalues --   -0.86557  -0.85756  -0.85321  -0.81377  -0.76276
 Alpha  occ. eigenvalues --   -0.75321  -0.74789  -0.74040  -0.73923  -0.72739
 Alpha  occ. eigenvalues --   -0.71439  -0.70170  -0.70120  -0.68382  -0.68158
 Alpha  occ. eigenvalues --   -0.68055  -0.67209  -0.67035  -0.63184  -0.56024
 Alpha virt. eigenvalues --    0.24290   0.25124   0.35761   0.39755   0.42286
 Alpha virt. eigenvalues --    0.44546   0.46647   0.51059   0.52253   0.56254
 Alpha virt. eigenvalues --    0.64572   0.65005   0.68333   0.68996   0.71344

 Mulliken charges:
               1
     1  C    1.093151
     2  C    0.577828
     3  C    1.097950
     4  F   -0.343081
     5  F   -0.336266
     6  F   -0.334885
     7  F   -0.361730
     8  F   -0.360961
     9  F   -0.343959
    10  F   -0.343294
    11  F   -0.344753
 Sum of Mulliken charges =  -0.00000

 Dipole moment (field-independent basis, Debye):
    X=              0.0725    Y=              0.0848    Z=              0.0075  Tot=              0.1119
 Quadrupole moment (field-independent basis, Debye-Ang):
   XX=            -56.9770   YY=            -57.2631   ZZ=            -57.2612
   XY=             -0.2131   XZ=             -0.0224   YZ=             -0.0053

 Normal termination of Gaussian 16 at Mon Sep 15 21:52:02 2025.
