 Gaussian 16, Revision A.03,
 Gaussian 16:  ES64L-G16RevA.03 25-Dec-2016

 -------------------
 # hf/6-31G(d) force
 -------------------

 -----------------
 Force calculation
 -----------------
 Symbolic Z-matrix:
 Charge =  0 Multiplicity = 1

                         Standard orientation:
 ---------------------------------------------------------------------
 Center     Atomic      Atomic             Coordinates (Angstroms)
 Number     Number       Type             X           Y           Z
 ---------------------------------------------------------------------
      1          6           0       -1.299285   -0.232169   -0.001889
      2          6           0       -0.000096    0.578688   -0.000596
      3          6           0        1.299792   -0.231369    0.000561
      4          9           0        1.373965   -0.983074   -1.071875
      5          9           0       -2.314459    0.596869   -0.027444
      6          9           0       -1.378450   -0.970521    1.080255
      7          9           0        0.003663    1.347952   -1.080997
      8          9           0       -0.005527    1.344558    1.082795
      9          9           0        2.315002    0.597062    0.009814
     10          9           0        1.363848   -0.997607    1.063582
     11          9           0       -1.358316   -1.012007   -1.054847
 ---------------------------------------------------------------------

 SCF Done:  E(RHF) =  -909.125499299     A.U. after   11 cycles

 The electronic state is 1-A.
 Alpha  occ. eigenvalues --  -26.37919 -26.37895 -26.37876 -26.37852 -26.37733
 Alpha  occ. eigenvalues --  -26.37722 -26.37498 -26.37473 -11.54728 -11.54727
 Alpha  occ. eigenvalues --  -11.47902  -1.78937  -1.77890  -1.73173  -1.68394
 Alpha  occ. eigenvalues --   -1.67750  -1.67575  -1.67548  -1.66402  -1.12516
 Alpha  occ. eigenvalues --   -1.02812  -0.95736  -0.90824  -0.88820  -0.87821
 Alpha  occ. eigenvalues --   -0.86544  -0.85673  -0.85524  -0.81566  -0.76144
 Alpha  occ. eigenvalues --   -0.75264  -0.74828  -0.73611  -0.73441  -0.73118
 Alpha  occ. eigenvalues --   -0.72348  -0.70297  -0.70169  -0.68546  -0.68537
 Alpha  occ. eigenvalues --   -0.68408  -0.67432  -0.67259  -0.63279  -0.56014
 Alpha virt. eigenvalues --    0.25266   0.26076   0.38061   0.38980   0.41946
 Alpha virt. eigenvalues --    0.44365   0.45761   0.49100   0.51704   0.55362
 Alpha virt. eigenvalues --    0.64094   0.64926   0.69182   0.69311   0.70395

 Mulliken charges:
               1
     1  C    1.081927
     2  C    0.605405
     3  C    1.081554
     4  F   -0.338791
     5  F   -0.342396
     6  F   -0.339392
     7  F   -0.364256
     8  F   -0.364637
     9  F   -0.341906
    10  F   -0.338971
    11  F   -0.338536
 Sum of Mulliken charges =  -0.00000

 Dipole moment (field-independent basis, Debye):
    X=              0.0035    Y=             -0.1372    Z=             -0.0109  Tot=              0.1377
 Quadrupole moment (field-independent basis, Debye-Ang):
   XX=            -56.8197   YY=            -57.2280   ZZ=            -57.2918
   XY=              0.0044   XZ=              0.0193   YZ=              0.0018

 Normal termination of Gaussian 16 at Mon Sep 15 21:55:52 2025.
