 Gaussian 16, Revision A.03,
 Gaussian 16:  ES64L-G16RevA.03 25-Dec-2016

 -------------------
 # hf/6-31G(d) force
 -------------------

 -----------------
 Force calculation
 -----------------
 Symbolic Z-matrix:
 Charge =  0 Multiplicity = 1

                         Standard orientation:
 ---------------------------------------------------------------------
 Center     Atomic      Atomic             Coordinates (Angstroms)
 Number     Number       Type             X           Y           Z
 ---------------------------------------------------------------------
      1          6           0        2.331284    0.144501   -0.199801
      2          6           0        0.956631    0.251538    0.431630
      3          6           0       -2.102936    0.591941   -0.151581
      4          6           0       -1.237502   -0.619456    0.171662
      5          1           0        2.647945   -0.891586   -0.233529
      6          1           0        3.059833    0.712076    0.371237
      7          1           0        2.313051    0.527553   -1.213791
      8          1           0        0.641321    1.292211    0.467576
      9          1           0        0.982290   -0.115180    1.457401
     10          1           0       -2.108982    0.771029   -1.221263
     11          1           0       -3.125097    0.418517    0.172377
     12          1           0       -1.746950    1.490531    0.341021
     13          1           0       -1.214916   -0.793785    1.246554
     14          1           0       -1.662334   -1.501845   -0.290904
     15          8           0        0.066122   -0.515083   -0.326017
 ---------------------------------------------------------------------

 SCF Done:  E(RHF) =  -232.142222353     A.U. after   12 cycles

 The electronic state is 1-A.
 Alpha  occ. eigenvalues --  -20.55003 -11.26822 -11.26782 -11.21076 -11.20834
 Alpha  occ. eigenvalues --   -1.37464  -1.04071  -0.98598  -0.86201  -0.81300
 Alpha  occ. eigenvalues --   -0.67234  -0.64690  -0.64416  -0.57522  -0.54889
 Alpha  occ. eigenvalues --   -0.54436  -0.52374  -0.50246  -0.48689  -0.45675
 Alpha  occ. eigenvalues --   -0.40774
 Alpha virt. eigenvalues --    0.23502   0.26133   0.28097   0.29374   0.31580
 Alpha virt. eigenvalues --    0.32146   0.32779   0.33951   0.34495   0.36216
 Alpha virt. eigenvalues --    0.37956   0.41898   0.42801   0.46042   0.69792

 Mulliken charges:
               1
     1  C   -0.487054
     2  C    0.020931
     3  C   -0.501435
     4  C    0.017014
     5  H    0.173206
     6  H    0.154181
     7  H    0.172978
     8  H    0.137476
     9  H    0.135282
    10  H    0.174243
    11  H    0.156880
    12  H    0.160986
    13  H    0.136211
    14  H    0.169418
    15  O   -0.620317
 Sum of Mulliken charges =  -0.00000

 Dipole moment (field-independent basis, Debye):
    X=             -0.3981    Y=              0.6250    Z=              1.1029  Tot=              1.3287
 Quadrupole moment (field-independent basis, Debye-Ang):
   XX=            -31.0660   YY=            -33.4978   ZZ=            -33.5026
   XY=              1.2661   XZ=              0.4035   YZ=             -0.4704

 Normal termination of Gaussian 16 at Mon Sep 15 21:33:12 2025.
