 Gaussian 16, Revision A.03,
 Gaussian 16:  ES64L-G16RevA.03 25-Dec-2016

 -------------------
 # hf/6-31G(d) force
 -------------------

 -----------------
 Force calculation
 -----------------
 Symbolic Z-matrix:
 Charge =  0 Multiplicity = 1

                         Standard orientation:
 ---------------------------------------------------------------------
 Center     Atomic      Atomic             Coordinates (Angstroms)
 Number     Number       Type             X           Y           Z
 ---------------------------------------------------------------------
      1          6           0       -1.305291   -0.208422   -0.000746
      2          6           0        0.021773    0.612087   -0.000407
      3          6           0        1.283003   -0.254234   -0.000454
      4          9           0        1.316065   -1.000195   -1.077939
      5          9           0       -2.048480    0.131354   -1.023312
      6          9           0       -1.974600    0.010182    1.102880
      7          9           0        0.061383    1.384583   -1.073767
      8          9           0        0.059630    1.381820    1.075642
      9          9           0        2.348623    0.509459    0.013506
     10          9           0        1.296852   -1.017347    1.066306
     11          9           0       -1.059129   -1.499477   -0.082244
 ---------------------------------------------------------------------

 SCF Done:  E(RHF) =  -909.119817458     A.U. after   11 cycles

 The electronic state is 1-A.
 Alpha  occ. eigenvalues --  -26.37792 -26.37777 -26.37750 -26.37652 -26.37636
 Alpha  occ. eigenvalues --  -26.37569 -26.37386 -26.37358 -11.54927 -11.54485
 Alpha  occ. eigenvalues --  -11.48076  -1.78908  -1.77770  -1.73321  -1.68336
 Alpha  occ. eigenvalues --   -1.67727  -1.67676  -1.67247  -1.66107  -1.12171
 Alpha  occ. eigenvalues --   -1.02393  -0.95548  -0.90885  -0.88955  -0.87609
 Alpha  occ. eigenvalues --   -0.86569  -0.85703  -0.85306  -0.81426  -0.76310
 Alpha  occ. eigenvalues --   -0.75316  -0.74830  -0.74073  -0.73844  -0.72787
 Alpha  occ. eigenvalues --   -0.71429  -0.70185  -0.70155  -0.68431  -0.68103
 Alpha  occ. eigenvalues --   -0.67998  -0.67169  -0.66994  -0.63257  -0.55916
 Alpha virt. eigenvalues --    0.24366   0.25102   0.35668   0.39868   0.42282
 Alpha virt. eigenvalues --    0.44641   0.46816   0.51100   0.52069   0.56316
 Alpha virt. eigenvalues --    0.64626   0.64982   0.68435   0.68758   0.71898

 Mulliken charges:
               1
     1  C    1.089604
     2  C    0.581055
     3  C    1.098081
     4  F   -0.344181
     5  F   -0.335378
     6  F   -0.334408
     7  F   -0.360010
     8  F   -0.360236
     9  F   -0.343171
    10  F   -0.345232
    11  F   -0.346125
 Sum of Mulliken charges =  -0.00000

 Dipole moment (field-independent basis, Debye):
    X=             -0.0601    Y=             -0.0271    Z=             -0.0097  Tot=              0.0666
 Quadrupole moment (field-independent basis, Debye-Ang):
   XX=            -56.9439   YY=            -57.2442   ZZ=            -57.2621
   XY=             -0.2390   XZ=              0.0028   YZ=              0.0020

 Normal termination of Gaussian 16 at Mon Sep 15 21:49:57 2025.
