 Gaussian 16, Revision A.03,
 Gaussian 16:  ES64L-G16RevA.03 25-Dec-2016

 -------------------
 # hf/6-31G(d) force
 -------------------

 -----------------
 Force calculation
 -----------------
 Symbolic Z-matrix:
 Charge =  0 Multiplicity = 1

                         Standard orientation:
 ---------------------------------------------------------------------
 Center     Atomic      Atomic             Coordinates (Angstroms)
 Number     Number       Type             X           Y           Z
 ---------------------------------------------------------------------
      1          6           0       -1.298805   -0.232092   -0.000150
      2          6           0       -0.000194    0.580092   -0.000271
      3          6           0        1.299229   -0.231263   -0.000271
      4          9           0        1.365839   -0.991428   -1.067130
      5          9           0       -2.315630    0.594726   -0.000858
      6          9           0       -1.365366   -0.989532    1.068582
      7          9           0       -0.000548    1.348400   -1.081500
      8          9           0       -0.001398    1.346799    1.082157
      9          9           0        2.316265    0.595291   -0.001997
     10          9           0        1.368575   -0.989544    1.067745
     11          9           0       -1.367891   -0.992537   -1.066539
 ---------------------------------------------------------------------

 SCF Done:  E(RHF) =  -909.125508203     A.U. after   11 cycles

 The electronic state is 1-A.
 Alpha  occ. eigenvalues --  -26.37884 -26.37882 -26.37881 -26.37879 -26.37725
 Alpha  occ. eigenvalues --  -26.37718 -26.37492 -26.37486 -11.54721 -11.54715
 Alpha  occ. eigenvalues --  -11.47901  -1.78950  -1.77904  -1.73181  -1.68403
 Alpha  occ. eigenvalues --   -1.67750  -1.67571  -1.67558  -1.66408  -1.12512
 Alpha  occ. eigenvalues --   -1.02799  -0.95745  -0.90821  -0.88832  -0.87827
 Alpha  occ. eigenvalues --   -0.86549  -0.85683  -0.85528  -0.81575  -0.76146
 Alpha  occ. eigenvalues --   -0.75266  -0.74842  -0.73612  -0.73442  -0.73122
 Alpha  occ. eigenvalues --   -0.72351  -0.70299  -0.70170  -0.68545  -0.68528
 Alpha  occ. eigenvalues --   -0.68409  -0.67433  -0.67249  -0.63279  -0.55998
 Alpha virt. eigenvalues --    0.25270   0.26093   0.38077   0.38996   0.41978
 Alpha virt. eigenvalues --    0.44421   0.45772   0.49097   0.51684   0.55379
 Alpha virt. eigenvalues --    0.64115   0.64922   0.69195   0.69309   0.70408

 Mulliken charges:
               1
     1  C    1.081220
     2  C    0.605376
     3  C    1.081146
     4  F   -0.338809
     5  F   -0.342160
     6  F   -0.338817
     7  F   -0.364264
     8  F   -0.364345
     9  F   -0.342036
    10  F   -0.338692
    11  F   -0.338619
 Sum of Mulliken charges =  -0.00000

 Dipole moment (field-independent basis, Debye):
    X=              0.0010    Y=             -0.1340    Z=             -0.0024  Tot=              0.1340
 Quadrupole moment (field-independent basis, Debye-Ang):
   XX=            -56.8229   YY=            -57.2237   ZZ=            -57.2876
   XY=              0.0043   XZ=              0.0001   YZ=             -0.0004

 Normal termination of Gaussian 16 at Mon Sep 15 21:56:16 2025.
