 Gaussian 16, Revision A.03,
 Gaussian 16:  ES64L-G16RevA.03 25-Dec-2016

 -------------------
 # hf/6-31G(d) force
 -------------------

 -----------------
 Force calculation
 -----------------
 Symbolic Z-matrix:
 Charge =  0 Multiplicity = 1

                         Standard orientation:
 ---------------------------------------------------------------------
 Center     Atomic      Atomic             Coordinates (Angstroms)
 Number     Number       Type             X           Y           Z
 ---------------------------------------------------------------------
      1          6           0        2.327172    0.161289   -0.207409
      2          6           0        0.962632    0.219507    0.452124
      3          6           0       -2.101202    0.600216   -0.143027
      4          6           0       -1.240039   -0.619871    0.157397
      5          1           0        2.648216   -0.868437   -0.319067
      6          1           0        3.062355    0.691207    0.390684
      7          1           0        2.292123    0.613666   -1.192198
      8          1           0        0.641198    1.253958    0.556579
      9          1           0        1.007349   -0.208341    1.453397
     10          1           0       -2.109394    0.799516   -1.209274
     11          1           0       -3.123018    0.425095    0.181827
     12          1           0       -1.739739    1.488163    0.365257
     13          1           0       -1.221605   -0.816607    1.228462
     14          1           0       -1.665547   -1.491869   -0.323917
     15          8           0        0.064586   -0.506650   -0.335782
 ---------------------------------------------------------------------

 SCF Done:  E(RHF) =  -232.142214345     A.U. after   12 cycles

 The electronic state is 1-A.
 Alpha  occ. eigenvalues --  -20.54992 -11.26819 -11.26797 -11.21074 -11.20847
 Alpha  occ. eigenvalues --   -1.37457  -1.04073  -0.98582  -0.86164  -0.81333
 Alpha  occ. eigenvalues --   -0.67225  -0.64582  -0.64523  -0.57450  -0.54943
 Alpha  occ. eigenvalues --   -0.54421  -0.52372  -0.50209  -0.48714  -0.45677
 Alpha  occ. eigenvalues --   -0.40755
 Alpha virt. eigenvalues --    0.23493   0.26132   0.28077   0.29361   0.31638
 Alpha virt. eigenvalues --    0.32147   0.32701   0.33930   0.34464   0.36197
 Alpha virt. eigenvalues --    0.38136   0.41743   0.42899   0.46021   0.69969

 Mulliken charges:
               1
     1  C   -0.487224
     2  C    0.021170
     3  C   -0.500349
     4  C    0.016903
     5  H    0.173563
     6  H    0.154171
     7  H    0.172663
     8  H    0.136983
     9  H    0.135710
    10  H    0.174248
    11  H    0.156447
    12  H    0.160812
    13  H    0.136155
    14  H    0.169208
    15  O   -0.620459
 Sum of Mulliken charges =  -0.00000

 Dipole moment (field-independent basis, Debye):
    X=             -0.3895    Y=              0.5834    Z=              1.1265  Tot=              1.3271
 Quadrupole moment (field-independent basis, Debye-Ang):
   XX=            -31.0553   YY=            -33.4810   ZZ=            -33.5199
   XY=              1.2251   XZ=              0.4376   YZ=             -0.4650

 Normal termination of Gaussian 16 at Mon Sep 15 21:32:56 2025.
