 Gaussian 16, Revision A.03,
 Gaussian 16:  ES64L-G16RevA.03 25-Dec-2016

 -------------------
 # hf/6-31G(d) force
 -------------------

 -----------------
 Force calculation
 -----------------
 Symbolic Z-matrix:
 Charge =  0 Multiplicity = 1

                         Standard orientation:
 ---------------------------------------------------------------------
 Center     Atomic      Atomic             Coordinates (Angstroms)
 Number     Number       Type             X           Y           Z
 ---------------------------------------------------------------------
      1          6           0        1.302204   -0.232053    0.003483
      2          6           0       -0.002415    0.577706   -0.006084
      3          6           0       -1.303299   -0.233199   -0.007631
      4          9           0       -1.487336   -0.775418    1.173580
      5          9           0        2.301369    0.603853    0.125117
      6          9           0        1.449164   -0.901755   -1.112459
      7          9           0       -0.025014    1.341474    1.077987
      8          9           0        0.020082    1.354143   -1.079761
      9          9           0       -2.310960    0.566887   -0.269229
     10          9           0       -1.267576   -1.187008   -0.913206
     11          9           0        1.322612   -1.077146    1.004793
 ---------------------------------------------------------------------

 SCF Done:  E(RHF) =  -909.124873838     A.U. after   11 cycles

 The electronic state is 1-A.
 Alpha  occ. eigenvalues --  -26.38009 -26.38009 -26.37771 -26.37756 -26.37734
 Alpha  occ. eigenvalues --  -26.37688 -26.37516 -26.37412 -11.54791 -11.54718
 Alpha  occ. eigenvalues --  -11.47965  -1.78949  -1.77877  -1.73235  -1.68347
 Alpha  occ. eigenvalues --   -1.67797  -1.67577  -1.67520  -1.66332  -1.12418
 Alpha  occ. eigenvalues --   -1.02788  -0.95705  -0.90901  -0.88815  -0.87757
 Alpha  occ. eigenvalues --   -0.86541  -0.85706  -0.85529  -0.81517  -0.76186
 Alpha  occ. eigenvalues --   -0.75428  -0.74552  -0.73879  -0.73448  -0.73167
 Alpha  occ. eigenvalues --   -0.72140  -0.70240  -0.70133  -0.68590  -0.68509
 Alpha  occ. eigenvalues --   -0.68237  -0.67402  -0.67322  -0.63293  -0.56031
 Alpha virt. eigenvalues --    0.25338   0.25725   0.37537   0.38955   0.42070
 Alpha virt. eigenvalues --    0.44391   0.45858   0.49443   0.51754   0.55444
 Alpha virt. eigenvalues --    0.64112   0.64956   0.69008   0.69319   0.70443

 Mulliken charges:
               1
     1  C    1.078689
     2  C    0.600257
     3  C    1.084121
     4  F   -0.338283
     5  F   -0.341038
     6  F   -0.335975
     7  F   -0.363752
     8  F   -0.362542
     9  F   -0.342368
    10  F   -0.341525
    11  F   -0.337585
 Sum of Mulliken charges =  -0.00000

 Dipole moment (field-independent basis, Debye):
    X=              0.0020    Y=             -0.1369    Z=             -0.0313  Tot=              0.1405
 Quadrupole moment (field-independent basis, Debye-Ang):
   XX=            -56.8662   YY=            -57.2690   ZZ=            -57.2681
   XY=             -0.0133   XZ=              0.0787   YZ=             -0.0160

 Normal termination of Gaussian 16 at Mon Sep 15 21:54:17 2025.
