 Gaussian 16, Revision A.03,
 Gaussian 16:  ES64L-G16RevA.03 25-Dec-2016

 -------------------
 # hf/6-31G(d) force
 -------------------

 -----------------
 Force calculation
 -----------------
 Symbolic Z-matrix:
 Charge =  0 Multiplicity = 1

                         Standard orientation:
 ---------------------------------------------------------------------
 Center     Atomic      Atomic             Coordinates (Angstroms)
 Number     Number       Type             X           Y           Z
 ---------------------------------------------------------------------
      1          6           0        1.335164    0.253774    0.047843
      2          6           0        0.095572   -0.548412   -0.086056
      3          6           0       -1.251625    0.173573    0.039775
      4          9           0       -1.494591    0.939426   -1.057016
      5          9           0        2.132052   -0.170549   -0.891603
      6          9           0        1.857450    0.175582    1.180239
      7          9           0        0.007748   -1.205868   -1.131898
      8          9           0        0.085118   -1.473646    0.980499
      9          9           0       -2.190221   -0.777775    0.124371
     10          9           0       -1.436011    1.085696    1.022209
     11          9           0        0.919047    1.507843   -0.227841
 ---------------------------------------------------------------------

 SCF Done:  E(RHF) =  -909.084374077     A.U. after   12 cycles

 The electronic state is 1-A.
 Alpha  occ. eigenvalues --  -26.40813 -26.40128 -26.38854 -26.37605 -26.37190
 Alpha  occ. eigenvalues --  -26.36458 -26.35612 -26.34554 -11.55471 -11.54635
 Alpha  occ. eigenvalues --  -11.48184  -1.81371  -1.78039  -1.74243  -1.70921
 Alpha  occ. eigenvalues --   -1.67815  -1.65886  -1.64056  -1.63339  -1.13733
 Alpha  occ. eigenvalues --   -1.03649  -0.95990  -0.92097  -0.89942  -0.89350
 Alpha  occ. eigenvalues --   -0.86766  -0.84578  -0.83675  -0.81467  -0.77311
 Alpha  occ. eigenvalues --   -0.75452  -0.75180  -0.74141  -0.72998  -0.71904
 Alpha  occ. eigenvalues --   -0.71127  -0.70665  -0.69380  -0.68854  -0.67533
 Alpha  occ. eigenvalues --   -0.66837  -0.66535  -0.65395  -0.62767  -0.57219
 Alpha virt. eigenvalues --    0.21693   0.25683   0.34910   0.37035   0.38908
 Alpha virt. eigenvalues --    0.42880   0.48074   0.51152   0.54271   0.56358
 Alpha virt. eigenvalues --    0.65227   0.65364   0.68598   0.70834   0.71640

 Mulliken charges:
               1
     1  C    1.133760
     2  C    0.547918
     3  C    1.117255
     4  F   -0.376782
     5  F   -0.341999
     6  F   -0.271331
     7  F   -0.281268
     8  F   -0.425432
     9  F   -0.356417
    10  F   -0.361320
    11  F   -0.384381
 Sum of Mulliken charges =  -0.00000

 Dipole moment (field-independent basis, Debye):
    X=              1.2342    Y=             -0.1169    Z=             -0.1555  Tot=              1.2494
 Quadrupole moment (field-independent basis, Debye-Ang):
   XX=            -56.3299   YY=            -58.2156   ZZ=            -56.8405
   XY=              0.5378   XZ=              0.3611   YZ=              1.1247

 Normal termination of Gaussian 16 at Mon Sep 15 21:50:51 2025.
