 Gaussian 16, Revision A.03,
 Gaussian 16:  ES64L-G16RevA.03 25-Dec-2016

 -------------------
 # hf/6-31G(d) force
 -------------------

 -----------------
 Force calculation
 -----------------
 Symbolic Z-matrix:
 Charge =  0 Multiplicity = 1

                         Standard orientation:
 ---------------------------------------------------------------------
 Center     Atomic      Atomic             Coordinates (Angstroms)
 Number     Number       Type             X           Y           Z
 ---------------------------------------------------------------------
      1          6           0       -1.307332   -0.208108   -0.000807
      2          6           0        0.019657    0.611711   -0.001087
      3          6           0        1.289481   -0.263102   -0.000415
      4          9           0        1.308454   -1.002812   -1.079496
      5          9           0       -2.046590    0.129419   -1.024377
      6          9           0       -1.973508    0.010674    1.102946
      7          9           0        0.063550    1.391514   -1.082535
      8          9           0        0.061600    1.389829    1.083355
      9          9           0        2.350768    0.505620    0.012343
     10          9           0        1.289828   -1.016981    1.070044
     11          9           0       -1.055305   -1.500931   -0.080740
 ---------------------------------------------------------------------

 SCF Done:  E(RHF) =  -909.119325828     A.U. after   11 cycles

 The electronic state is 1-A.
 Alpha  occ. eigenvalues --  -26.37963 -26.37928 -26.37750 -26.37737 -26.37715
 Alpha  occ. eigenvalues --  -26.37659 -26.37158 -26.37101 -11.55012 -11.54644
 Alpha  occ. eigenvalues --  -11.48064  -1.78895  -1.77853  -1.72513  -1.68384
 Alpha  occ. eigenvalues --   -1.67884  -1.67796  -1.67302  -1.65657  -1.11925
 Alpha  occ. eigenvalues --   -1.02286  -0.95514  -0.90683  -0.88663  -0.87600
 Alpha  occ. eigenvalues --   -0.86700  -0.85804  -0.85201  -0.80931  -0.76071
 Alpha  occ. eigenvalues --   -0.75276  -0.74625  -0.74141  -0.73871  -0.72722
 Alpha  occ. eigenvalues --   -0.71319  -0.70280  -0.70263  -0.68461  -0.68172
 Alpha  occ. eigenvalues --   -0.68065  -0.67137  -0.66990  -0.63057  -0.55748
 Alpha virt. eigenvalues --    0.24209   0.25002   0.35652   0.40213   0.41593
 Alpha virt. eigenvalues --    0.44306   0.46211   0.50728   0.51730   0.55866
 Alpha virt. eigenvalues --    0.64547   0.64936   0.68510   0.68768   0.71811

 Mulliken charges:
               1
     1  C    1.091855
     2  C    0.582837
     3  C    1.098650
     4  F   -0.341593
     5  F   -0.333000
     6  F   -0.332526
     7  F   -0.365985
     8  F   -0.366814
     9  F   -0.341940
    10  F   -0.342767
    11  F   -0.348717
 Sum of Mulliken charges =  -0.00000

 Dipole moment (field-independent basis, Debye):
    X=             -0.0356    Y=             -0.1273    Z=             -0.0150  Tot=              0.1330
 Quadrupole moment (field-independent basis, Debye-Ang):
   XX=            -56.7082   YY=            -57.3520   ZZ=            -57.3178
   XY=             -0.3384   XZ=              0.0044   YZ=             -0.0041

 Normal termination of Gaussian 16 at Mon Sep 15 21:49:41 2025.
