 Gaussian 16, Revision A.03,
 Gaussian 16:  ES64L-G16RevA.03 25-Dec-2016

 -------------------
 # hf/6-31G(d) force
 -------------------

 -----------------
 Force calculation
 -----------------
 Symbolic Z-matrix:
 Charge =  0 Multiplicity = 1

                         Standard orientation:
 ---------------------------------------------------------------------
 Center     Atomic      Atomic             Coordinates (Angstroms)
 Number     Number       Type             X           Y           Z
 ---------------------------------------------------------------------
      1          6           0        2.327723    0.161314   -0.207210
      2          6           0        0.962728    0.219101    0.452321
      3          6           0       -2.102129    0.599708   -0.142781
      4          6           0       -1.239834   -0.619905    0.157420
      5          1           0        2.648660   -0.868540   -0.319959
      6          1           0        3.062805    0.690426    0.391862
      7          1           0        2.293299    0.614532   -1.192015
      8          1           0        0.641168    1.253345    0.558478
      9          1           0        1.007229   -0.210240    1.452979
     10          1           0       -2.113364    0.797384   -1.209368
     11          1           0       -3.122923    0.425866    0.185689
     12          1           0       -1.738451    1.488108    0.362376
     13          1           0       -1.220584   -0.816512    1.228659
     14          1           0       -1.664977   -1.492505   -0.323290
     15          8           0        0.064526   -0.505397   -0.336739
 ---------------------------------------------------------------------

 SCF Done:  E(RHF) =  -232.142213086     A.U. after   12 cycles

 The electronic state is 1-A.
 Alpha  occ. eigenvalues --  -20.54994 -11.26826 -11.26801 -11.21072 -11.20858
 Alpha  occ. eigenvalues --   -1.37456  -1.04062  -0.98574  -0.86162  -0.81340
 Alpha  occ. eigenvalues --   -0.67219  -0.64575  -0.64521  -0.57437  -0.54943
 Alpha  occ. eigenvalues --   -0.54422  -0.52376  -0.50210  -0.48706  -0.45683
 Alpha  occ. eigenvalues --   -0.40753
 Alpha virt. eigenvalues --    0.23495   0.26128   0.28072   0.29360   0.31644
 Alpha virt. eigenvalues --    0.32148   0.32683   0.33930   0.34476   0.36191
 Alpha virt. eigenvalues --    0.38149   0.41730   0.42893   0.46020   0.69981

 Mulliken charges:
               1
     1  C   -0.487238
     2  C    0.021190
     3  C   -0.500205
     4  C    0.016737
     5  H    0.173533
     6  H    0.154177
     7  H    0.172638
     8  H    0.136964
     9  H    0.135714
    10  H    0.174209
    11  H    0.156438
    12  H    0.160887
    13  H    0.136168
    14  H    0.169202
    15  O   -0.620415
 Sum of Mulliken charges =  -0.00000

 Dipole moment (field-independent basis, Debye):
    X=             -0.3894    Y=              0.5805    Z=              1.1291  Tot=              1.3279
 Quadrupole moment (field-independent basis, Debye-Ang):
   XX=            -31.0561   YY=            -33.4785   ZZ=            -33.5220
   XY=              1.2221   XZ=              0.4360   YZ=             -0.4653

 Normal termination of Gaussian 16 at Mon Sep 15 21:32:54 2025.
