 Gaussian 16, Revision A.03,
 Gaussian 16:  ES64L-G16RevA.03 25-Dec-2016

 -------------------
 # hf/6-31G(d) force
 -------------------

 -----------------
 Force calculation
 -----------------
 Symbolic Z-matrix:
 Charge =  0 Multiplicity = 1

                         Standard orientation:
 ---------------------------------------------------------------------
 Center     Atomic      Atomic             Coordinates (Angstroms)
 Number     Number       Type             X           Y           Z
 ---------------------------------------------------------------------
      1          6           0        2.333185    0.149692   -0.203634
      2          6           0        0.960155    0.240039    0.441109
      3          6           0       -2.108621    0.591327   -0.149622
      4          6           0       -1.237887   -0.619786    0.167016
      5          1           0        2.649596   -0.888583   -0.271319
      6          1           0        3.064240    0.696741    0.385483
      7          1           0        2.313178    0.564521   -1.209364
      8          1           0        0.645930    1.282111    0.508351
      9          1           0        0.991388   -0.154432    1.459085
     10          1           0       -2.124550    0.768870   -1.220887
     11          1           0       -3.126036    0.418800    0.193513
     12          1           0       -1.746779    1.496059    0.333483
     13          1           0       -1.213895   -0.793990    1.242838
     14          1           0       -1.658154   -1.505121   -0.297528
     15          8           0        0.065511   -0.506576   -0.331608
 ---------------------------------------------------------------------

 SCF Done:  E(RHF) =  -232.142147221     A.U. after   12 cycles

 The electronic state is 1-A.
 Alpha  occ. eigenvalues --  -20.55023 -11.26887 -11.26884 -11.21152 -11.20965
 Alpha  occ. eigenvalues --   -1.37440  -1.03979  -0.98493  -0.86116  -0.81278
 Alpha  occ. eigenvalues --   -0.67174  -0.64575  -0.64405  -0.57412  -0.54802
 Alpha  occ. eigenvalues --   -0.54440  -0.52377  -0.50186  -0.48603  -0.45699
 Alpha  occ. eigenvalues --   -0.40752
 Alpha virt. eigenvalues --    0.23473   0.26084   0.28017   0.29298   0.31613
 Alpha virt. eigenvalues --    0.32122   0.32625   0.33884   0.34477   0.36154
 Alpha virt. eigenvalues --    0.37979   0.41744   0.42740   0.46037   0.69925

 Mulliken charges:
               1
     1  C   -0.486573
     2  C    0.021131
     3  C   -0.500303
     4  C    0.017156
     5  H    0.172859
     6  H    0.154155
     7  H    0.172504
     8  H    0.137018
     9  H    0.135316
    10  H    0.173988
    11  H    0.156485
    12  H    0.160716
    13  H    0.136044
    14  H    0.169490
    15  O   -0.619986
 Sum of Mulliken charges =  -0.00000

 Dipole moment (field-independent basis, Debye):
    X=             -0.3933    Y=              0.5969    Z=              1.1205  Tot=              1.3291
 Quadrupole moment (field-independent basis, Debye-Ang):
   XX=            -31.1096   YY=            -33.4853   ZZ=            -33.5260
   XY=              1.2464   XZ=              0.3960   YZ=             -0.4608

 Normal termination of Gaussian 16 at Mon Sep 15 21:32:46 2025.
