 Gaussian 16, Revision A.03,
 Gaussian 16:  ES64L-G16RevA.03 25-Dec-2016

 -------------------
 # hf/6-31G(d) force
 -------------------

 -----------------
 Force calculation
 -----------------
 Symbolic Z-matrix:
 Charge =  0 Multiplicity = 1

                         Standard orientation:
 ---------------------------------------------------------------------
 Center     Atomic      Atomic             Coordinates (Angstroms)
 Number     Number       Type             X           Y           Z
 ---------------------------------------------------------------------
      1          6           0       -1.295868   -0.232502    0.004221
      2          6           0        0.001557    0.584349    0.009920
      3          6           0        1.299259   -0.230027    0.008235
      4          9           0        1.411377   -0.865118   -1.132123
      5          9           0       -2.304841    0.579040   -0.176129
      6          9           0       -1.457176   -0.861826    1.140482
      7          9           0        0.005800    1.329591   -1.087237
      8          9           0       -0.010796    1.372528    1.075026
      9          9           0        2.323130    0.571262    0.148299
     10          9           0        1.306949   -1.099569    0.984684
     11          9           0       -1.277741   -1.107121   -0.967919
 ---------------------------------------------------------------------

 SCF Done:  E(RHF) =  -909.125064462     A.U. after   11 cycles

 The electronic state is 1-A.
 Alpha  occ. eigenvalues --  -26.38055 -26.37924 -26.37770 -26.37740 -26.37651
 Alpha  occ. eigenvalues --  -26.37642 -26.37527 -26.37335 -11.54622 -11.54586
 Alpha  occ. eigenvalues --  -11.47795  -1.79142  -1.78110  -1.73192  -1.68483
 Alpha  occ. eigenvalues --   -1.67883  -1.67683  -1.67608  -1.66362  -1.12448
 Alpha  occ. eigenvalues --   -1.02762  -0.95799  -0.90929  -0.88925  -0.87898
 Alpha  occ. eigenvalues --   -0.86686  -0.85740  -0.85664  -0.81586  -0.76185
 Alpha  occ. eigenvalues --   -0.75441  -0.74673  -0.73832  -0.73472  -0.73184
 Alpha  occ. eigenvalues --   -0.72205  -0.70318  -0.70192  -0.68553  -0.68524
 Alpha  occ. eigenvalues --   -0.68273  -0.67373  -0.67279  -0.63200  -0.55899
 Alpha virt. eigenvalues --    0.25440   0.26190   0.38071   0.39290   0.42273
 Alpha virt. eigenvalues --    0.44811   0.46250   0.49412   0.51889   0.55724
 Alpha virt. eigenvalues --    0.64328   0.64964   0.69178   0.69334   0.70630

 Mulliken charges:
               1
     1  C    1.076827
     2  C    0.600650
     3  C    1.077314
     4  F   -0.338396
     5  F   -0.340318
     6  F   -0.336228
     7  F   -0.365093
     8  F   -0.362608
     9  F   -0.339471
    10  F   -0.336077
    11  F   -0.336599
 Sum of Mulliken charges =  -0.00000

 Dipole moment (field-independent basis, Debye):
    X=              0.0202    Y=             -0.1299    Z=              0.0769  Tot=              0.1523
 Quadrupole moment (field-independent basis, Debye-Ang):
   XX=            -56.7803   YY=            -57.1789   ZZ=            -57.2581
   XY=              0.0178   XZ=              0.0667   YZ=              0.0143

 Normal termination of Gaussian 16 at Mon Sep 15 21:54:33 2025.
