 Gaussian 16, Revision A.03,
 Gaussian 16:  ES64L-G16RevA.03 25-Dec-2016

 -------------------
 # hf/6-31G(d) force
 -------------------

 -----------------
 Force calculation
 -----------------
 Symbolic Z-matrix:
 Charge =  0 Multiplicity = 1

                         Standard orientation:
 ---------------------------------------------------------------------
 Center     Atomic      Atomic             Coordinates (Angstroms)
 Number     Number       Type             X           Y           Z
 ---------------------------------------------------------------------
      1          6           0        2.329121    0.154458   -0.204871
      2          6           0        0.960829    0.231987    0.444701
      3          6           0       -2.102623    0.596822   -0.146376
      4          6           0       -1.239210   -0.619831    0.162893
      5          1           0        2.648988   -0.878122   -0.286643
      6          1           0        3.062279    0.698976    0.382166
      7          1           0        2.299578    0.581626   -1.201057
      8          1           0        0.643310    1.269758    0.522338
      9          1           0        0.997731   -0.172720    1.455853
     10          1           0       -2.109336    0.788783   -1.213883
     11          1           0       -3.125100    0.421594    0.175527
     12          1           0       -1.745452    1.488531    0.357542
     13          1           0       -1.219316   -0.807645    1.235587
     14          1           0       -1.663303   -1.496456   -0.311458
     15          8           0        0.065240   -0.509368   -0.331757
 ---------------------------------------------------------------------

 SCF Done:  E(RHF) =  -232.142217570     A.U. after   12 cycles

 The electronic state is 1-A.
 Alpha  occ. eigenvalues --  -20.54994 -11.26827 -11.26790 -11.21072 -11.20838
 Alpha  occ. eigenvalues --   -1.37451  -1.04071  -0.98586  -0.86181  -0.81318
 Alpha  occ. eigenvalues --   -0.67224  -0.64623  -0.64481  -0.57481  -0.54931
 Alpha  occ. eigenvalues --   -0.54414  -0.52360  -0.50227  -0.48711  -0.45672
 Alpha  occ. eigenvalues --   -0.40762
 Alpha virt. eigenvalues --    0.23499   0.26132   0.28083   0.29371   0.31608
 Alpha virt. eigenvalues --    0.32148   0.32737   0.33938   0.34473   0.36210
 Alpha virt. eigenvalues --    0.38055   0.41800   0.42856   0.46025   0.69894

 Mulliken charges:
               1
     1  C   -0.487163
     2  C    0.021146
     3  C   -0.500854
     4  C    0.017000
     5  H    0.173424
     6  H    0.154200
     7  H    0.172732
     8  H    0.137156
     9  H    0.135524
    10  H    0.174239
    11  H    0.156638
    12  H    0.160980
    13  H    0.136167
    14  H    0.169310
    15  O   -0.620500
 Sum of Mulliken charges =  -0.00000

 Dipole moment (field-independent basis, Debye):
    X=             -0.3934    Y=              0.5992    Z=              1.1177  Tot=              1.3278
 Quadrupole moment (field-independent basis, Debye-Ang):
   XX=            -31.0544   YY=            -33.4818   ZZ=            -33.5152
   XY=              1.2403   XZ=              0.4275   YZ=             -0.4668

 Normal termination of Gaussian 16 at Mon Sep 15 21:33:04 2025.
