 Gaussian 16, Revision A.03,
 Gaussian 16:  ES64L-G16RevA.03 25-Dec-2016

 -------------------
 # hf/6-31G(d) force
 -------------------

 -----------------
 Force calculation
 -----------------
 Symbolic Z-matrix:
 Charge =  0 Multiplicity = 1

                         Standard orientation:
 ---------------------------------------------------------------------
 Center     Atomic      Atomic             Coordinates (Angstroms)
 Number     Number       Type             X           Y           Z
 ---------------------------------------------------------------------
      1          6           0        1.290749   -0.233815    0.002702
      2          6           0        0.001822    0.596268    0.002593
      3          6           0       -1.294390   -0.228262    0.000162
      4          9           0       -1.554940   -0.667829    1.206121
      5          9           0        2.309416    0.549992    0.245305
      6          9           0        1.462740   -0.802841   -1.163774
      7          9           0       -0.001796    1.371400    1.077235
      8          9           0        0.017226    1.359424   -1.080697
      9          9           0       -2.288468    0.521634   -0.404500
     10          9           0       -1.181333   -1.256530   -0.809780
     11          9           0        1.238368   -1.164711    0.926453
 ---------------------------------------------------------------------

 SCF Done:  E(RHF) =  -909.124414256     A.U. after   11 cycles

 The electronic state is 1-A.
 Alpha  occ. eigenvalues --  -26.37979 -26.37956 -26.37736 -26.37730 -26.37720
 Alpha  occ. eigenvalues --  -26.37675 -26.37462 -26.37423 -11.54711 -11.54621
 Alpha  occ. eigenvalues --  -11.47889  -1.79004  -1.77930  -1.73237  -1.68367
 Alpha  occ. eigenvalues --   -1.67841  -1.67656  -1.67540  -1.66278  -1.12465
 Alpha  occ. eigenvalues --   -1.02672  -0.95682  -0.90893  -0.88963  -0.87759
 Alpha  occ. eigenvalues --   -0.86613  -0.85631  -0.85620  -0.81494  -0.76237
 Alpha  occ. eigenvalues --   -0.75494  -0.74320  -0.74163  -0.73565  -0.73197
 Alpha  occ. eigenvalues --   -0.71907  -0.70266  -0.70198  -0.68501  -0.68450
 Alpha  occ. eigenvalues --   -0.68063  -0.67505  -0.67303  -0.63257  -0.55944
 Alpha virt. eigenvalues --    0.25486   0.25699   0.37217   0.39132   0.42142
 Alpha virt. eigenvalues --    0.44517   0.46850   0.49858   0.51721   0.55839
 Alpha virt. eigenvalues --    0.64324   0.64923   0.69016   0.69181   0.71193

 Mulliken charges:
               1
     1  C    1.081536
     2  C    0.593809
     3  C    1.081763
     4  F   -0.335224
     5  F   -0.339676
     6  F   -0.336667
     7  F   -0.361308
     8  F   -0.362062
     9  F   -0.339247
    10  F   -0.341817
    11  F   -0.341107
 Sum of Mulliken charges =  -0.00000

 Dipole moment (field-independent basis, Debye):
    X=             -0.0108    Y=             -0.0758    Z=              0.0149  Tot=              0.0780
 Quadrupole moment (field-independent basis, Debye-Ang):
   XX=            -56.7705   YY=            -57.2416   ZZ=            -57.2559
   XY=             -0.0273   XZ=              0.0327   YZ=              0.0078

 Normal termination of Gaussian 16 at Mon Sep 15 21:53:53 2025.
