 Gaussian 16, Revision A.03,
 Gaussian 16:  ES64L-G16RevA.03 25-Dec-2016

 -------------------
 # hf/6-31G(d) force
 -------------------

 -----------------
 Force calculation
 -----------------
 Symbolic Z-matrix:
 Charge =  0 Multiplicity = 1

                         Standard orientation:
 ---------------------------------------------------------------------
 Center     Atomic      Atomic             Coordinates (Angstroms)
 Number     Number       Type             X           Y           Z
 ---------------------------------------------------------------------
      1          6           0        2.294051    0.281436   -0.202888
      2          6           0        0.989564   -0.007025    0.516019
      3          6           0       -2.075829    0.653829   -0.044340
      4          6           0       -1.250925   -0.621898    0.057196
      5          1           0        2.658413   -0.607724   -0.704951
      6          1           0        3.050922    0.614548    0.501098
      7          1           0        2.149608    1.052260   -0.951410
      8          1           0        0.637757    0.887997    1.025587
      9          1           0        1.132848   -0.773118    1.277167
     10          1           0       -2.099089    0.993073   -1.074344
     11          1           0       -3.097877    0.476307    0.275376
     12          1           0       -1.662009    1.451054    0.564949
     13          1           0       -1.226509   -0.987195    1.082618
     14          1           0       -1.702054   -1.396957   -0.550674
     15          8           0        0.052103   -0.443537   -0.425167
 ---------------------------------------------------------------------

 SCF Done:  E(RHF) =  -232.141996435     A.U. after   11 cycles

 The electronic state is 1-A.
 Alpha  occ. eigenvalues --  -20.54947 -11.26829 -11.26815 -11.21016 -11.20874
 Alpha  occ. eigenvalues --   -1.37433  -1.04051  -0.98535  -0.85932  -0.81640
 Alpha  occ. eigenvalues --   -0.67155  -0.65082  -0.63987  -0.57293  -0.55199
 Alpha  occ. eigenvalues --   -0.54262  -0.52329  -0.50069  -0.48883  -0.45834
 Alpha  occ. eigenvalues --   -0.40654
 Alpha virt. eigenvalues --    0.23459   0.26196   0.28055   0.29454   0.31706
 Alpha virt. eigenvalues --    0.32230   0.32495   0.33791   0.34470   0.36069
 Alpha virt. eigenvalues --    0.38349   0.41165   0.43249   0.45855   0.71271

 Mulliken charges:
               1
     1  C   -0.488032
     2  C    0.021096
     3  C   -0.494635
     4  C    0.013477
     5  H    0.174134
     6  H    0.154323
     7  H    0.172367
     8  H    0.134761
     9  H    0.138318
    10  H    0.174008
    11  H    0.154962
    12  H    0.160750
    13  H    0.137171
    14  H    0.167944
    15  O   -0.620645
 Sum of Mulliken charges =  -0.00000

 Dipole moment (field-independent basis, Debye):
    X=             -0.3446    Y=              0.2827    Z=              1.2615  Tot=              1.3379
 Quadrupole moment (field-independent basis, Debye-Ang):
   XX=            -30.9593   YY=            -33.3628   ZZ=            -33.6951
   XY=              0.9590   XZ=              0.6548   YZ=             -0.4535

 Normal termination of Gaussian 16 at Mon Sep 15 21:32:28 2025.
