 Gaussian 16, Revision A.03,
 Gaussian 16:  ES64L-G16RevA.03 25-Dec-2016

 -------------------
 # hf/6-31G(d) force
 -------------------

 -----------------
 Force calculation
 -----------------
 Symbolic Z-matrix:
 Charge =  0 Multiplicity = 1

                         Standard orientation:
 ---------------------------------------------------------------------
 Center     Atomic      Atomic             Coordinates (Angstroms)
 Number     Number       Type             X           Y           Z
 ---------------------------------------------------------------------
      1          6           0       -1.285355   -0.217792   -0.000727
      2          6           0        0.017330    0.638804    0.000619
      3          6           0        1.267121   -0.251208   -0.000042
      4          9           0        1.272517   -1.003426   -1.076194
      5          9           0       -2.027605    0.095912   -1.030108
      6          9           0       -1.954407   -0.016953    1.104176
      7          9           0        0.041427    1.414614   -1.076146
      8          9           0        0.039004    1.413077    1.078696
      9          9           0        2.351169    0.487199    0.004079
     10          9           0        1.262427   -1.008825    1.073182
     11          9           0       -0.983929   -1.494800   -0.077587
 ---------------------------------------------------------------------

 SCF Done:  E(RHF) =  -909.118296108     A.U. after   11 cycles

 The electronic state is 1-A.
 Alpha  occ. eigenvalues --  -26.37786 -26.37723 -26.37711 -26.37710 -26.37698
 Alpha  occ. eigenvalues --  -26.37609 -26.37317 -26.37312 -11.54804 -11.54547
 Alpha  occ. eigenvalues --  -11.47992  -1.78930  -1.77660  -1.73018  -1.68331
 Alpha  occ. eigenvalues --   -1.67883  -1.67697  -1.67197  -1.65952  -1.12254
 Alpha  occ. eigenvalues --   -1.02168  -0.95523  -0.90665  -0.88976  -0.87576
 Alpha  occ. eigenvalues --   -0.86633  -0.85715  -0.85215  -0.81209  -0.76285
 Alpha  occ. eigenvalues --   -0.75380  -0.74766  -0.74026  -0.73798  -0.72775
 Alpha  occ. eigenvalues --   -0.71363  -0.70371  -0.70204  -0.68474  -0.68207
 Alpha  occ. eigenvalues --   -0.67808  -0.67167  -0.66895  -0.63275  -0.55610
 Alpha virt. eigenvalues --    0.24399   0.25548   0.35567   0.40014   0.41819
 Alpha virt. eigenvalues --    0.44438   0.46957   0.50562   0.51990   0.56379
 Alpha virt. eigenvalues --    0.64641   0.65013   0.68410   0.68618   0.72911

 Mulliken charges:
               1
     1  C    1.086861
     2  C    0.586030
     3  C    1.100283
     4  F   -0.346388
     5  F   -0.334050
     6  F   -0.333035
     7  F   -0.361497
     8  F   -0.361198
     9  F   -0.342706
    10  F   -0.347495
    11  F   -0.346807
 Sum of Mulliken charges =  -0.00000

 Dipole moment (field-independent basis, Debye):
    X=             -0.0727    Y=             -0.0231    Z=             -0.0041  Tot=              0.0764
 Quadrupole moment (field-independent basis, Debye-Ang):
   XX=            -56.7349   YY=            -57.2485   ZZ=            -57.2959
   XY=             -0.1915   XZ=              0.0065   YZ=              0.0068

 Normal termination of Gaussian 16 at Mon Sep 15 21:49:10 2025.
