 Gaussian 16, Revision A.03,
 Gaussian 16:  ES64L-G16RevA.03 25-Dec-2016

 -------------------
 # hf/6-31G(d) force
 -------------------

 -----------------
 Force calculation
 -----------------
 Symbolic Z-matrix:
 Charge =  0 Multiplicity = 1

                         Standard orientation:
 ---------------------------------------------------------------------
 Center     Atomic      Atomic             Coordinates (Angstroms)
 Number     Number       Type             X           Y           Z
 ---------------------------------------------------------------------
      1          6           0        2.330923    0.147250   -0.201382
      2          6           0        0.958024    0.245768    0.435684
      3          6           0       -2.103324    0.593169   -0.150010
      4          6           0       -1.237975   -0.619615    0.169240
      5          1           0        2.648284   -0.888082   -0.249257
      6          1           0        3.061110    0.707832    0.374397
      7          1           0        2.309215    0.543899   -1.210335
      8          1           0        0.642713    1.286000    0.484120
      9          1           0        0.986738   -0.132474    1.457256
     10          1           0       -2.109573    0.775552   -1.219204
     11          1           0       -3.125708    0.419180    0.172843
     12          1           0       -1.747219    1.490000    0.345737
     13          1           0       -1.215694   -0.797529    1.243697
     14          1           0       -1.662302   -1.500806   -0.296523
     15          8           0        0.065819   -0.512875   -0.327990
 ---------------------------------------------------------------------

 SCF Done:  E(RHF) =  -232.142220546     A.U. after   12 cycles

 The electronic state is 1-A.
 Alpha  occ. eigenvalues --  -20.55003 -11.26830 -11.26787 -11.21077 -11.20838
 Alpha  occ. eigenvalues --   -1.37456  -1.04065  -0.98589  -0.86191  -0.81306
 Alpha  occ. eigenvalues --   -0.67226  -0.64667  -0.64432  -0.57507  -0.54902
 Alpha  occ. eigenvalues --   -0.54424  -0.52365  -0.50239  -0.48694  -0.45676
 Alpha  occ. eigenvalues --   -0.40771
 Alpha virt. eigenvalues --    0.23501   0.26131   0.28089   0.29372   0.31586
 Alpha virt. eigenvalues --    0.32146   0.32765   0.33945   0.34490   0.36212
 Alpha virt. eigenvalues --    0.37980   0.41862   0.42811   0.46033   0.69822

 Mulliken charges:
               1
     1  C   -0.487064
     2  C    0.020980
     3  C   -0.501220
     4  C    0.016965
     5  H    0.173267
     6  H    0.154190
     7  H    0.172883
     8  H    0.137360
     9  H    0.135368
    10  H    0.174233
    11  H    0.156821
    12  H    0.161005
    13  H    0.136200
    14  H    0.169385
    15  O   -0.620373
 Sum of Mulliken charges =  -0.00000

 Dipole moment (field-independent basis, Debye):
    X=             -0.3967    Y=              0.6163    Z=              1.1083  Tot=              1.3287
 Quadrupole moment (field-independent basis, Debye-Ang):
   XX=            -31.0624   YY=            -33.4915   ZZ=            -33.5082
   XY=              1.2587   XZ=              0.4119   YZ=             -0.4696

 Normal termination of Gaussian 16 at Mon Sep 15 21:33:09 2025.
