 Gaussian 16, Revision A.03,
 Gaussian 16:  ES64L-G16RevA.03 25-Dec-2016

 -------------------
 # hf/6-31G(d) force
 -------------------

 -----------------
 Force calculation
 -----------------
 Symbolic Z-matrix:
 Charge =  0 Multiplicity = 1

                         Standard orientation:
 ---------------------------------------------------------------------
 Center     Atomic      Atomic             Coordinates (Angstroms)
 Number     Number       Type             X           Y           Z
 ---------------------------------------------------------------------
      1          6           0       -1.310436   -0.216376   -0.001593
      2          6           0        0.011746    0.597087    0.003819
      3          6           0        1.291478   -0.247438    0.003286
      4          9           0        1.423066   -0.866708   -1.144393
      5          9           0       -2.179521    0.338980   -0.816007
      6          9           0       -1.827432   -0.254559    1.209712
      7          9           0        0.053240    1.362209   -1.079820
      8          9           0        0.029575    1.376881    1.078073
      9          9           0        2.326904    0.542359    0.176311
     10          9           0        1.268194   -1.131677    0.973664
     11          9           0       -1.089219   -1.456334   -0.401215
 ---------------------------------------------------------------------

 SCF Done:  E(RHF) =  -909.121103558     A.U. after   11 cycles

 The electronic state is 1-A.
 Alpha  occ. eigenvalues --  -26.37996 -26.37973 -26.37794 -26.37743 -26.37666
 Alpha  occ. eigenvalues --  -26.37547 -26.37410 -26.37401 -11.55135 -11.54676
 Alpha  occ. eigenvalues --  -11.48235  -1.78703  -1.77573  -1.73114  -1.68227
 Alpha  occ. eigenvalues --   -1.67659  -1.67571  -1.67263  -1.66027  -1.12256
 Alpha  occ. eigenvalues --   -1.02538  -0.95477  -0.90805  -0.88781  -0.87526
 Alpha  occ. eigenvalues --   -0.86424  -0.85567  -0.85259  -0.81299  -0.76234
 Alpha  occ. eigenvalues --   -0.75311  -0.74646  -0.73997  -0.73783  -0.72845
 Alpha  occ. eigenvalues --   -0.71492  -0.70180  -0.70110  -0.68380  -0.68234
 Alpha  occ. eigenvalues --   -0.68020  -0.67407  -0.67126  -0.63287  -0.56174
 Alpha virt. eigenvalues --    0.24202   0.24973   0.35704   0.39207   0.41962
 Alpha virt. eigenvalues --    0.44023   0.46360   0.50563   0.51558   0.55750
 Alpha virt. eigenvalues --    0.64302   0.64894   0.68394   0.68979   0.71293

 Mulliken charges:
               1
     1  C    1.097264
     2  C    0.583080
     3  C    1.096386
     4  F   -0.340905
     5  F   -0.338895
     6  F   -0.338189
     7  F   -0.361917
     8  F   -0.361114
     9  F   -0.344605
    10  F   -0.343264
    11  F   -0.347844
 Sum of Mulliken charges =  -0.00000

 Dipole moment (field-independent basis, Debye):
    X=             -0.0623    Y=             -0.0782    Z=             -0.0026  Tot=              0.1000
 Quadrupole moment (field-independent basis, Debye-Ang):
   XX=            -57.0135   YY=            -57.3084   ZZ=            -57.3059
   XY=             -0.1891   XZ=              0.0516   YZ=              0.0114

 Normal termination of Gaussian 16 at Mon Sep 15 21:52:18 2025.
