 Gaussian 16, Revision A.03,
 Gaussian 16:  ES64L-G16RevA.03 25-Dec-2016

 -------------------
 # hf/6-31G(d) force
 -------------------

 -----------------
 Force calculation
 -----------------
 Symbolic Z-matrix:
 Charge =  0 Multiplicity = 1

                         Standard orientation:
 ---------------------------------------------------------------------
 Center     Atomic      Atomic             Coordinates (Angstroms)
 Number     Number       Type             X           Y           Z
 ---------------------------------------------------------------------
      1          6           0       -1.298834   -0.232492   -0.000997
      2          6           0       -0.000348    0.579254   -0.000344
      3          6           0        1.299665   -0.230912    0.000215
      4          9           0        1.370223   -0.986097   -1.069510
      5          9           0       -2.314806    0.595157   -0.015710
      6          9           0       -1.371645   -0.978659    1.075297
      7          9           0        0.000980    1.347804   -1.081219
      8          9           0       -0.004581    1.345573    1.082642
      9          9           0        2.315296    0.596482    0.004007
     10          9           0        1.366984   -0.993844    1.064881
     11          9           0       -1.362772   -1.003649   -1.059637
 ---------------------------------------------------------------------

 SCF Done:  E(RHF) =  -909.125503974     A.U. after   11 cycles

 The electronic state is 1-A.
 Alpha  occ. eigenvalues --  -26.37900 -26.37885 -26.37872 -26.37866 -26.37730
 Alpha  occ. eigenvalues --  -26.37712 -26.37492 -26.37474 -11.54714 -11.54707
 Alpha  occ. eigenvalues --  -11.47890  -1.78965  -1.77921  -1.73175  -1.68407
 Alpha  occ. eigenvalues --   -1.67760  -1.67581  -1.67565  -1.66405  -1.12513
 Alpha  occ. eigenvalues --   -1.02807  -0.95748  -0.90836  -0.88832  -0.87835
 Alpha  occ. eigenvalues --   -0.86561  -0.85686  -0.85540  -0.81572  -0.76147
 Alpha  occ. eigenvalues --   -0.75267  -0.74840  -0.73613  -0.73448  -0.73124
 Alpha  occ. eigenvalues --   -0.72350  -0.70300  -0.70170  -0.68546  -0.68533
 Alpha  occ. eigenvalues --   -0.68407  -0.67430  -0.67252  -0.63274  -0.56000
 Alpha virt. eigenvalues --    0.25282   0.26103   0.38092   0.39021   0.41994
 Alpha virt. eigenvalues --    0.44437   0.45787   0.49117   0.51728   0.55399
 Alpha virt. eigenvalues --    0.64122   0.64932   0.69192   0.69313   0.70409

 Mulliken charges:
               1
     1  C    1.081312
     2  C    0.605218
     3  C    1.080891
     4  F   -0.338626
     5  F   -0.342220
     6  F   -0.338955
     7  F   -0.364274
     8  F   -0.364604
     9  F   -0.341675
    10  F   -0.338661
    11  F   -0.338405
 Sum of Mulliken charges =  -0.00000

 Dipole moment (field-independent basis, Debye):
    X=              0.0038    Y=             -0.1366    Z=             -0.0063  Tot=              0.1368
 Quadrupole moment (field-independent basis, Debye-Ang):
   XX=            -56.8169   YY=            -57.2221   ZZ=            -57.2868
   XY=              0.0089   XZ=              0.0101   YZ=              0.0000

 Normal termination of Gaussian 16 at Mon Sep 15 21:56:00 2025.
