 Gaussian 16, Revision A.03,
 Gaussian 16:  ES64L-G16RevA.03 25-Dec-2016

 -------------------
 # hf/6-31G(d) force
 -------------------

 -----------------
 Force calculation
 -----------------
 Symbolic Z-matrix:
 Charge =  0 Multiplicity = 1

                         Standard orientation:
 ---------------------------------------------------------------------
 Center     Atomic      Atomic             Coordinates (Angstroms)
 Number     Number       Type             X           Y           Z
 ---------------------------------------------------------------------
      1          6           0        1.299140   -0.231752    0.000010
      2          6           0        0.000041    0.579983    0.000229
      3          6           0       -1.299219   -0.231620    0.000092
      4          9           0       -1.367455   -0.989549    1.068397
      5          9           0        2.315948    0.595012    0.000719
      6          9           0        1.366809   -0.989754   -1.068243
      7          9           0       -0.000077    1.347793    1.081877
      8          9           0        0.000570    1.347417   -1.081648
      9          9           0       -2.316183    0.595048   -0.001487
     10          9           0       -1.367006   -0.991742   -1.066589
     11          9           0        1.367418   -0.991965    1.066752
 ---------------------------------------------------------------------

 SCF Done:  E(RHF) =  -909.125508998     A.U. after   11 cycles

 The electronic state is 1-A.
 Alpha  occ. eigenvalues --  -26.37883 -26.37882 -26.37881 -26.37880 -26.37723
 Alpha  occ. eigenvalues --  -26.37721 -26.37488 -26.37486 -11.54720 -11.54718
 Alpha  occ. eigenvalues --  -11.47903  -1.78951  -1.77905  -1.73180  -1.68402
 Alpha  occ. eigenvalues --   -1.67750  -1.67571  -1.67558  -1.66407  -1.12508
 Alpha  occ. eigenvalues --   -1.02799  -0.95745  -0.90821  -0.88832  -0.87827
 Alpha  occ. eigenvalues --   -0.86550  -0.85683  -0.85529  -0.81574  -0.76146
 Alpha  occ. eigenvalues --   -0.75266  -0.74842  -0.73612  -0.73443  -0.73123
 Alpha  occ. eigenvalues --   -0.72350  -0.70299  -0.70169  -0.68545  -0.68529
 Alpha  occ. eigenvalues --   -0.68408  -0.67432  -0.67250  -0.63278  -0.55998
 Alpha virt. eigenvalues --    0.25266   0.26090   0.38077   0.38996   0.41981
 Alpha virt. eigenvalues --    0.44422   0.45764   0.49101   0.51682   0.55375
 Alpha virt. eigenvalues --    0.64114   0.64922   0.69194   0.69308   0.70405

 Mulliken charges:
               1
     1  C    1.081170
     2  C    0.605334
     3  C    1.081136
     4  F   -0.338746
     5  F   -0.342053
     6  F   -0.338740
     7  F   -0.364301
     8  F   -0.364313
     9  F   -0.342089
    10  F   -0.338647
    11  F   -0.338751
 Sum of Mulliken charges =  -0.00000

 Dipole moment (field-independent basis, Debye):
    X=             -0.0000    Y=             -0.1344    Z=              0.0006  Tot=              0.1344
 Quadrupole moment (field-independent basis, Debye-Ang):
   XX=            -56.8233   YY=            -57.2245   ZZ=            -57.2878
   XY=              0.0002   XZ=             -0.0002   YZ=              0.0006

 Normal termination of Gaussian 16 at Mon Sep 15 21:56:24 2025.
