 Gaussian 16, Revision A.03,
 Gaussian 16:  ES64L-G16RevA.03 25-Dec-2016

 -------------------
 # hf/6-31G(d) force
 -------------------

 -----------------
 Force calculation
 -----------------
 Symbolic Z-matrix:
 Charge =  0 Multiplicity = 1

                         Standard orientation:
 ---------------------------------------------------------------------
 Center     Atomic      Atomic             Coordinates (Angstroms)
 Number     Number       Type             X           Y           Z
 ---------------------------------------------------------------------
      1          6           0        1.315032    0.211888   -0.000380
      2          6           0       -0.015941   -0.595324    0.001499
      3          6           0       -1.292232    0.252309    0.000442
      4          9           0       -1.358530    0.980441   -1.087630
      5          9           0        2.068589   -0.162316   -1.002433
      6          9           0        1.968578    0.012809    1.116377
      7          9           0       -0.056766   -1.363746   -1.076570
      8          9           0       -0.049953   -1.368241    1.077165
      9          9           0       -2.328968   -0.549187    0.036790
     10          9           0       -1.326387    1.037233    1.052507
     11          9           0        1.078864    1.500424   -0.117246
 ---------------------------------------------------------------------

 SCF Done:  E(RHF) =  -909.120102297     A.U. after   11 cycles

 The electronic state is 1-A.
 Alpha  occ. eigenvalues --  -26.37901 -26.37797 -26.37775 -26.37665 -26.37638
 Alpha  occ. eigenvalues --  -26.37542 -26.37324 -26.37317 -11.54932 -11.54543
 Alpha  occ. eigenvalues --  -11.48064  -1.78912  -1.77818  -1.73207  -1.68304
 Alpha  occ. eigenvalues --   -1.67781  -1.67640  -1.67346  -1.66048  -1.12099
 Alpha  occ. eigenvalues --   -1.02503  -0.95535  -0.90986  -0.88834  -0.87610
 Alpha  occ. eigenvalues --   -0.86559  -0.85773  -0.85306  -0.81366  -0.76275
 Alpha  occ. eigenvalues --   -0.75318  -0.74781  -0.74033  -0.73940  -0.72724
 Alpha  occ. eigenvalues --   -0.71433  -0.70168  -0.70122  -0.68386  -0.68138
 Alpha  occ. eigenvalues --   -0.68068  -0.67192  -0.67024  -0.63182  -0.56032
 Alpha virt. eigenvalues --    0.24249   0.25113   0.35745   0.39776   0.42288
 Alpha virt. eigenvalues --    0.44566   0.46649   0.51100   0.52301   0.56277
 Alpha virt. eigenvalues --    0.64583   0.65019   0.68317   0.68986   0.71370

 Mulliken charges:
               1
     1  C    1.093479
     2  C    0.577526
     3  C    1.098901
     4  F   -0.342854
     5  F   -0.335550
     6  F   -0.334744
     7  F   -0.361691
     8  F   -0.361562
     9  F   -0.343756
    10  F   -0.344797
    11  F   -0.344953
 Sum of Mulliken charges =  -0.00000

 Dipole moment (field-independent basis, Debye):
    X=              0.0813    Y=              0.0793    Z=             -0.0064  Tot=              0.1138
 Quadrupole moment (field-independent basis, Debye-Ang):
   XX=            -56.9628   YY=            -57.2699   ZZ=            -57.2623
   XY=             -0.2151   XZ=             -0.0050   YZ=             -0.0095

 Normal termination of Gaussian 16 at Mon Sep 15 21:51:30 2025.
