 Gaussian 16, Revision A.03,
 Gaussian 16:  ES64L-G16RevA.03 25-Dec-2016

 -------------------
 # hf/6-31G(d) force
 -------------------

 -----------------
 Force calculation
 -----------------
 Symbolic Z-matrix:
 Charge =  0 Multiplicity = 1

                         Standard orientation:
 ---------------------------------------------------------------------
 Center     Atomic      Atomic             Coordinates (Angstroms)
 Number     Number       Type             X           Y           Z
 ---------------------------------------------------------------------
      1          6           0       -1.299268   -0.201997    0.013967
      2          6           0        0.083591    0.632364    0.005760
      3          6           0        1.309587   -0.297928    0.042265
      4          9           0        1.292736   -0.951305   -1.137924
      5          9           0       -2.148030    0.305810   -0.927288
      6          9           0       -1.887066   -0.072088    1.196018
      7          9           0        0.116882    1.416348   -1.072268
      8          9           0        0.143558    1.365559    1.047010
      9          9           0        2.472997    0.324131    0.081385
     10          9           0        1.144158   -0.994607    1.028699
     11          9           0       -1.197844   -1.482141   -0.256960
 ---------------------------------------------------------------------

 SCF Done:  E(RHF) =  -909.095471299     A.U. after   11 cycles

 The electronic state is 1-A.
 Alpha  occ. eigenvalues --  -26.41462 -26.38415 -26.38152 -26.37431 -26.37411
 Alpha  occ. eigenvalues --  -26.36441 -26.36203 -26.35664 -11.55159 -11.54469
 Alpha  occ. eigenvalues --  -11.48147  -1.82289  -1.76804  -1.74952  -1.70396
 Alpha  occ. eigenvalues --   -1.67327  -1.66736  -1.65648  -1.64362  -1.11284
 Alpha  occ. eigenvalues --   -1.02081  -0.96198  -0.91003  -0.90079  -0.88995
 Alpha  occ. eigenvalues --   -0.86521  -0.85629  -0.84228  -0.82120  -0.77181
 Alpha  occ. eigenvalues --   -0.76465  -0.74595  -0.73802  -0.73411  -0.72643
 Alpha  occ. eigenvalues --   -0.71462  -0.70301  -0.69823  -0.68639  -0.67894
 Alpha  occ. eigenvalues --   -0.66841  -0.66782  -0.66365  -0.62573  -0.54442
 Alpha virt. eigenvalues --    0.24251   0.25847   0.33661   0.39010   0.41708
 Alpha virt. eigenvalues --    0.43311   0.46545   0.49646   0.51127   0.56076
 Alpha virt. eigenvalues --    0.64376   0.65282   0.68629   0.69639   0.71336

 Mulliken charges:
               1
     1  C    1.071658
     2  C    0.588597
     3  C    1.054734
     4  F   -0.380347
     5  F   -0.374585
     6  F   -0.343411
     7  F   -0.365512
     8  F   -0.322283
     9  F   -0.348944
    10  F   -0.252428
    11  F   -0.327480
 Sum of Mulliken charges =  -0.00000

 Dipole moment (field-independent basis, Debye):
    X=              0.5354    Y=             -0.3060    Z=              0.8874  Tot=              1.0806
 Quadrupole moment (field-independent basis, Debye-Ang):
   XX=            -58.0427   YY=            -56.5610   ZZ=            -57.3351
   XY=             -0.4075   XZ=              0.5229   YZ=             -0.2293

 Normal termination of Gaussian 16 at Mon Sep 15 21:51:38 2025.
