 Gaussian 16, Revision A.03,
 Gaussian 16:  ES64L-G16RevA.03 25-Dec-2016

 -------------------
 # hf/6-31G(d) force
 -------------------

 -----------------
 Force calculation
 -----------------
 Symbolic Z-matrix:
 Charge =  0 Multiplicity = 1

                         Standard orientation:
 ---------------------------------------------------------------------
 Center     Atomic      Atomic             Coordinates (Angstroms)
 Number     Number       Type             X           Y           Z
 ---------------------------------------------------------------------
      1          6           0       -1.299490   -0.231797   -0.001784
      2          6           0        0.000262    0.578880   -0.000978
      3          6           0        1.299625   -0.231962    0.000972
      4          9           0        1.381321   -0.973096   -1.077936
      5          9           0       -2.314090    0.596907   -0.045626
      6          9           0       -1.388314   -0.956287    1.088398
      7          9           0        0.005919    1.347668   -1.082059
      8          9           0       -0.005430    1.345428    1.081674
      9          9           0        2.315137    0.595690    0.025730
     10          9           0        1.355325   -1.007881    1.056983
     11          9           0       -1.350132   -1.025175   -1.045970
 ---------------------------------------------------------------------

 SCF Done:  E(RHF) =  -909.125493144     A.U. after   11 cycles

 The electronic state is 1-A.
 Alpha  occ. eigenvalues --  -26.37909 -26.37909 -26.37869 -26.37857 -26.37725
 Alpha  occ. eigenvalues --  -26.37724 -26.37489 -26.37479 -11.54732 -11.54719
 Alpha  occ. eigenvalues --  -11.47902  -1.78942  -1.77896  -1.73170  -1.68396
 Alpha  occ. eigenvalues --   -1.67751  -1.67575  -1.67554  -1.66398  -1.12510
 Alpha  occ. eigenvalues --   -1.02807  -0.95737  -0.90826  -0.88820  -0.87822
 Alpha  occ. eigenvalues --   -0.86549  -0.85674  -0.85528  -0.81563  -0.76144
 Alpha  occ. eigenvalues --   -0.75270  -0.74823  -0.73620  -0.73441  -0.73120
 Alpha  occ. eigenvalues --   -0.72342  -0.70298  -0.70168  -0.68549  -0.68538
 Alpha  occ. eigenvalues --   -0.68402  -0.67430  -0.67260  -0.63277  -0.56008
 Alpha virt. eigenvalues --    0.25273   0.26071   0.38050   0.38990   0.41955
 Alpha virt. eigenvalues --    0.44372   0.45759   0.49105   0.51708   0.55372
 Alpha virt. eigenvalues --    0.64098   0.64927   0.69181   0.69311   0.70400

 Mulliken charges:
               1
     1  C    1.081814
     2  C    0.605284
     3  C    1.081312
     4  F   -0.338472
     5  F   -0.342198
     6  F   -0.338792
     7  F   -0.364400
     8  F   -0.364461
     9  F   -0.341946
    10  F   -0.338891
    11  F   -0.339250
 Sum of Mulliken charges =  -0.00000

 Dipole moment (field-independent basis, Debye):
    X=              0.0030    Y=             -0.1380    Z=             -0.0057  Tot=              0.1381
 Quadrupole moment (field-independent basis, Debye-Ang):
   XX=            -56.8201   YY=            -57.2276   ZZ=            -57.2911
   XY=             -0.0025   XZ=              0.0179   YZ=             -0.0007

 Normal termination of Gaussian 16 at Mon Sep 15 21:55:44 2025.
