 Gaussian 16, Revision A.03,
 Gaussian 16:  ES64L-G16RevA.03 25-Dec-2016

 -------------------
 # hf/6-31G(d) force
 -------------------

 -----------------
 Force calculation
 -----------------
 Symbolic Z-matrix:
 Charge =  0 Multiplicity = 1

                         Standard orientation:
 ---------------------------------------------------------------------
 Center     Atomic      Atomic             Coordinates (Angstroms)
 Number     Number       Type             X           Y           Z
 ---------------------------------------------------------------------
      1          6           0       -1.302886   -0.224512   -0.002087
      2          6           0        0.009612    0.602788    0.011244
      3          6           0        1.296310   -0.241470    0.003854
      4          9           0        1.482076   -0.748955   -1.195042
      5          9           0       -2.273094    0.461667   -0.617871
      6          9           0       -1.694301   -0.497894    1.244932
      7          9           0        0.042641    1.379983   -1.072862
      8          9           0        0.006790    1.376511    1.097201
      9          9           0        2.323812    0.523474    0.300561
     10          9           0        1.217960   -1.214185    0.890117
     11          9           0       -1.107906   -1.371806   -0.655709
 ---------------------------------------------------------------------

 SCF Done:  E(RHF) =  -909.120356930     A.U. after   11 cycles

 The electronic state is 1-A.
 Alpha  occ. eigenvalues --  -26.38228 -26.38191 -26.37850 -26.37837 -26.37831
 Alpha  occ. eigenvalues --  -26.37700 -26.37593 -26.37542 -11.55653 -11.55102
 Alpha  occ. eigenvalues --  -11.48706  -1.78351  -1.76550  -1.72805  -1.68115
 Alpha  occ. eigenvalues --   -1.67650  -1.67069  -1.66868  -1.65862  -1.12396
 Alpha  occ. eigenvalues --   -1.02495  -0.95264  -0.90270  -0.88554  -0.87359
 Alpha  occ. eigenvalues --   -0.85904  -0.85253  -0.84705  -0.81093  -0.76069
 Alpha  occ. eigenvalues --   -0.75278  -0.74270  -0.73981  -0.73445  -0.72947
 Alpha  occ. eigenvalues --   -0.71528  -0.70181  -0.70113  -0.68454  -0.68345
 Alpha  occ. eigenvalues --   -0.67997  -0.67620  -0.67365  -0.63435  -0.56404
 Alpha virt. eigenvalues --    0.23850   0.24375   0.35297   0.37869   0.40363
 Alpha virt. eigenvalues --    0.42616   0.45182   0.49007   0.50213   0.54494
 Alpha virt. eigenvalues --    0.63781   0.64671   0.68455   0.68907   0.71083

 Mulliken charges:
               1
     1  C    1.109556
     2  C    0.595790
     3  C    1.096611
     4  F   -0.340520
     5  F   -0.352207
     6  F   -0.346083
     7  F   -0.362496
     8  F   -0.361495
     9  F   -0.342140
    10  F   -0.344382
    11  F   -0.352634
 Sum of Mulliken charges =  -0.00000

 Dipole moment (field-independent basis, Debye):
    X=              0.0760    Y=             -0.0802    Z=              0.0312  Tot=              0.1148
 Quadrupole moment (field-independent basis, Debye-Ang):
   XX=            -57.1515   YY=            -57.3976   ZZ=            -57.4640
   XY=             -0.0930   XZ=              0.0376   YZ=              0.0305

 Normal termination of Gaussian 16 at Mon Sep 15 21:52:26 2025.
