 Gaussian 16, Revision A.03,
 Gaussian 16:  ES64L-G16RevA.03 25-Dec-2016

 -------------------
 # hf/6-31G(d) force
 -------------------

 -----------------
 Force calculation
 -----------------
 Symbolic Z-matrix:
 Charge =  0 Multiplicity = 1

                         Standard orientation:
 ---------------------------------------------------------------------
 Center     Atomic      Atomic             Coordinates (Angstroms)
 Number     Number       Type             X           Y           Z
 ---------------------------------------------------------------------
      1          6           0        2.331019    0.137503   -0.194769
      2          6           0        0.951088    0.268356    0.419009
      3          6           0       -2.097566    0.592192   -0.155951
      4          6           0       -1.238193   -0.620772    0.176343
      5          1           0        2.654905   -0.896566   -0.178113
      6          1           0        3.051662    0.735514    0.354510
      7          1           0        2.319515    0.471793   -1.225424
      8          1           0        0.636319    1.308989    0.411237
      9          1           0        0.966351   -0.057905    1.458023
     10          1           0       -2.099968    0.767172   -1.225922
     11          1           0       -3.120768    0.423770    0.166857
     12          1           0       -1.741569    1.491318    0.334598
     13          1           0       -1.221033   -0.789748    1.252046
     14          1           0       -1.664623   -1.503412   -0.283687
     15          8           0        0.067640   -0.526825   -0.316490
 ---------------------------------------------------------------------

 SCF Done:  E(RHF) =  -232.142229244     A.U. after   12 cycles

 The electronic state is 1-A.
 Alpha  occ. eigenvalues --  -20.54998 -11.26814 -11.26753 -11.21074 -11.20814
 Alpha  occ. eigenvalues --   -1.37481  -1.04087  -0.98629  -0.86264  -0.81255
 Alpha  occ. eigenvalues --   -0.67266  -0.64772  -0.64346  -0.57607  -0.54841
 Alpha  occ. eigenvalues --   -0.54447  -0.52396  -0.50272  -0.48698  -0.45643
 Alpha  occ. eigenvalues --   -0.40786
 Alpha virt. eigenvalues --    0.23512   0.26153   0.28129   0.29386   0.31546
 Alpha virt. eigenvalues --    0.32151   0.32826   0.33976   0.34486   0.36249
 Alpha virt. eigenvalues --    0.37861   0.42035   0.42750   0.46065   0.69714

 Mulliken charges:
               1
     1  C   -0.487131
     2  C    0.021053
     3  C   -0.502679
     4  C    0.017360
     5  H    0.172935
     6  H    0.154088
     7  H    0.173214
     8  H    0.137850
     9  H    0.134994
    10  H    0.174285
    11  H    0.157216
    12  H    0.161152
    13  H    0.136202
    14  H    0.169662
    15  O   -0.620201
 Sum of Mulliken charges =  -0.00000

 Dipole moment (field-independent basis, Debye):
    X=             -0.4100    Y=              0.6621    Z=              1.0762  Tot=              1.3284
 Quadrupole moment (field-independent basis, Debye-Ang):
   XX=            -31.0668   YY=            -33.5275   ZZ=            -33.4765
   XY=              1.2876   XZ=              0.3786   YZ=             -0.4695

 Normal termination of Gaussian 16 at Mon Sep 15 21:33:22 2025.
