 Gaussian 16, Revision A.03,
 Gaussian 16:  ES64L-G16RevA.03 25-Dec-2016

 -------------------
 # hf/6-31G(d) force
 -------------------

 -----------------
 Force calculation
 -----------------
 Symbolic Z-matrix:
 Charge =  0 Multiplicity = 1

                         Standard orientation:
 ---------------------------------------------------------------------
 Center     Atomic      Atomic             Coordinates (Angstroms)
 Number     Number       Type             X           Y           Z
 ---------------------------------------------------------------------
      1          6           0        2.330265    0.140764   -0.196002
      2          6           0        0.950938    0.263175    0.422257
      3          6           0       -2.095277    0.595392   -0.154680
      4          6           0       -1.239393   -0.621516    0.173811
      5          1           0        2.658583   -0.892209   -0.184841
      6          1           0        3.049615    0.739389    0.354316
      7          1           0        2.314096    0.481138   -1.225151
      8          1           0        0.634117    1.303625    0.422530
      9          1           0        0.969210   -0.070272    1.459300
     10          1           0       -2.096087    0.774662   -1.224371
     11          1           0       -3.119660    0.428931    0.165661
     12          1           0       -1.736794    1.491774    0.339756
     13          1           0       -1.224026   -0.794588    1.249047
     14          1           0       -1.667295   -1.501733   -0.289840
     15          8           0        0.067380   -0.528451   -0.317341
 ---------------------------------------------------------------------

 SCF Done:  E(RHF) =  -232.142232359     A.U. after   12 cycles

 The electronic state is 1-A.
 Alpha  occ. eigenvalues --  -20.55006 -11.26824 -11.26767 -11.21088 -11.20831
 Alpha  occ. eigenvalues --   -1.37470  -1.04067  -0.98617  -0.86255  -0.81249
 Alpha  occ. eigenvalues --   -0.67254  -0.64747  -0.64348  -0.57602  -0.54840
 Alpha  occ. eigenvalues --   -0.54432  -0.52388  -0.50263  -0.48703  -0.45641
 Alpha  occ. eigenvalues --   -0.40788
 Alpha virt. eigenvalues --    0.23509   0.26149   0.28118   0.29377   0.31537
 Alpha virt. eigenvalues --    0.32151   0.32816   0.33969   0.34475   0.36238
 Alpha virt. eigenvalues --    0.37885   0.42012   0.42746   0.46049   0.69754

 Mulliken charges:
               1
     1  C   -0.487011
     2  C    0.020912
     3  C   -0.502691
     4  C    0.017300
     5  H    0.172909
     6  H    0.154129
     7  H    0.173177
     8  H    0.137724
     9  H    0.135082
    10  H    0.174210
    11  H    0.157276
    12  H    0.161168
    13  H    0.136231
    14  H    0.169726
    15  O   -0.620140
 Sum of Mulliken charges =  -0.00000

 Dipole moment (field-independent basis, Debye):
    X=             -0.4110    Y=              0.6610    Z=              1.0782  Tot=              1.3298
 Quadrupole moment (field-independent basis, Debye-Ang):
   XX=            -31.0634   YY=            -33.5331   ZZ=            -33.4815
   XY=              1.2859   XZ=              0.3873   YZ=             -0.4723

 Normal termination of Gaussian 16 at Mon Sep 15 21:33:27 2025.
