 Gaussian 16, Revision A.03,
 Gaussian 16:  ES64L-G16RevA.03 25-Dec-2016

 -------------------
 # hf/6-31G(d) force
 -------------------

 -----------------
 Force calculation
 -----------------
 Symbolic Z-matrix:
 Charge =  0 Multiplicity = 1

                         Standard orientation:
 ---------------------------------------------------------------------
 Center     Atomic      Atomic             Coordinates (Angstroms)
 Number     Number       Type             X           Y           Z
 ---------------------------------------------------------------------
      1          6           0       -1.258455   -0.212978   -0.000804
      2          6           0        0.014406    0.626216    0.001208
      3          6           0        1.246832   -0.239744   -0.000066
      4          9           0        1.270142   -0.998842   -1.067305
      5          9           0       -2.024160    0.080914   -1.028687
      6          9           0       -1.949570   -0.032075    1.102246
      7          9           0        0.028733    1.420171   -1.071347
      8          9           0        0.027107    1.417459    1.076185
      9          9           0        2.347751    0.485620    0.002238
     10          9           0        1.263340   -1.003855    1.063544
     11          9           0       -0.965199   -1.485054   -0.077099
 ---------------------------------------------------------------------

 SCF Done:  E(RHF) =  -909.116133645     A.U. after   11 cycles

 The electronic state is 1-A.
 Alpha  occ. eigenvalues --  -26.37957 -26.37954 -26.37843 -26.37543 -26.37540
 Alpha  occ. eigenvalues --  -26.37493 -26.37482 -26.37453 -11.54906 -11.54724
 Alpha  occ. eigenvalues --  -11.48353  -1.79224  -1.77851  -1.73054  -1.68302
 Alpha  occ. eigenvalues --   -1.67907  -1.67602  -1.67091  -1.65772  -1.13932
 Alpha  occ. eigenvalues --   -1.02790  -0.95672  -0.91131  -0.89302  -0.87755
 Alpha  occ. eigenvalues --   -0.86667  -0.85675  -0.85193  -0.80998  -0.76428
 Alpha  occ. eigenvalues --   -0.75433  -0.74923  -0.74136  -0.73802  -0.72705
 Alpha  occ. eigenvalues --   -0.71288  -0.70240  -0.70100  -0.68413  -0.68145
 Alpha  occ. eigenvalues --   -0.67710  -0.67071  -0.66828  -0.64316  -0.57161
 Alpha virt. eigenvalues --    0.22703   0.24589   0.35830   0.39110   0.43123
 Alpha virt. eigenvalues --    0.45655   0.48109   0.50951   0.52803   0.56122
 Alpha virt. eigenvalues --    0.64634   0.64984   0.68078   0.68435   0.73164

 Mulliken charges:
               1
     1  C    1.093127
     2  C    0.590629
     3  C    1.103314
     4  F   -0.344299
     5  F   -0.340019
     6  F   -0.338523
     7  F   -0.365047
     8  F   -0.364944
     9  F   -0.347793
    10  F   -0.344560
    11  F   -0.341886
 Sum of Mulliken charges =  -0.00000

 Dipole moment (field-independent basis, Debye):
    X=             -0.0309    Y=             -0.0456    Z=             -0.0024  Tot=              0.0552
 Quadrupole moment (field-independent basis, Debye-Ang):
   XX=            -57.2425   YY=            -57.2554   ZZ=            -57.2515
   XY=             -0.1898   XZ=              0.0115   YZ=              0.0077

 Normal termination of Gaussian 16 at Mon Sep 15 21:48:54 2025.
