 Gaussian 16, Revision A.03,
 Gaussian 16:  ES64L-G16RevA.03 25-Dec-2016

 -------------------
 # hf/6-31G(d) force
 -------------------

 -----------------
 Force calculation
 -----------------
 Symbolic Z-matrix:
 Charge =  0 Multiplicity = 1

                         Standard orientation:
 ---------------------------------------------------------------------
 Center     Atomic      Atomic             Coordinates (Angstroms)
 Number     Number       Type             X           Y           Z
 ---------------------------------------------------------------------
      1          6           0        1.290959   -0.231835    0.000191
      2          6           0        0.001415    0.602385   -0.000497
      3          6           0       -1.291370   -0.229756   -0.001448
      4          9           0       -1.536474   -0.682405    1.203601
      5          9           0        2.303044    0.516282    0.368513
      6          9           0        1.524965   -0.701940   -1.202281
      7          9           0       -0.006052    1.369731    1.080688
      8          9           0        0.011210    1.375032   -1.077741
      9          9           0       -2.296500    0.516347   -0.387246
     10          9           0       -1.179224   -1.248404   -0.824367
     11          9           0        1.178361   -1.238506    0.840001
 ---------------------------------------------------------------------

 SCF Done:  E(RHF) =  -909.124144687     A.U. after   11 cycles

 The electronic state is 1-A.
 Alpha  occ. eigenvalues --  -26.37993 -26.37981 -26.37746 -26.37732 -26.37719
 Alpha  occ. eigenvalues --  -26.37700 -26.37462 -26.37445 -11.54758 -11.54732
 Alpha  occ. eigenvalues --  -11.47989  -1.78882  -1.77787  -1.73202  -1.68316
 Alpha  occ. eigenvalues --   -1.67792  -1.67561  -1.67516  -1.66225  -1.12451
 Alpha  occ. eigenvalues --   -1.02615  -0.95610  -0.90805  -0.88951  -0.87672
 Alpha  occ. eigenvalues --   -0.86561  -0.85574  -0.85510  -0.81441  -0.76241
 Alpha  occ. eigenvalues --   -0.75475  -0.74246  -0.74157  -0.73598  -0.73199
 Alpha  occ. eigenvalues --   -0.71817  -0.70240  -0.70209  -0.68453  -0.68445
 Alpha  occ. eigenvalues --   -0.67979  -0.67571  -0.67324  -0.63266  -0.55981
 Alpha virt. eigenvalues --    0.25320   0.25497   0.36855   0.38975   0.41980
 Alpha virt. eigenvalues --    0.44282   0.46864   0.49943   0.51428   0.55755
 Alpha virt. eigenvalues --    0.64277   0.64867   0.68981   0.69042   0.71432

 Mulliken charges:
               1
     1  C    1.086599
     2  C    0.592111
     3  C    1.084108
     4  F   -0.336370
     5  F   -0.340339
     6  F   -0.337695
     7  F   -0.361198
     8  F   -0.361023
     9  F   -0.339463
    10  F   -0.342803
    11  F   -0.343927
 Sum of Mulliken charges =  -0.00000

 Dipole moment (field-independent basis, Debye):
    X=             -0.0013    Y=             -0.0571    Z=             -0.0058  Tot=              0.0574
 Quadrupole moment (field-independent basis, Debye-Ang):
   XX=            -56.8012   YY=            -57.2552   ZZ=            -57.2813
   XY=             -0.0061   XZ=              0.0272   YZ=             -0.0007

 Normal termination of Gaussian 16 at Mon Sep 15 21:53:21 2025.
