 Gaussian 16, Revision A.03,
 Gaussian 16:  ES64L-G16RevA.03 25-Dec-2016

 -------------------
 # hf/6-31G(d) force
 -------------------

 -----------------
 Force calculation
 -----------------
 Symbolic Z-matrix:
 Charge =  0 Multiplicity = 1

                         Standard orientation:
 ---------------------------------------------------------------------
 Center     Atomic      Atomic             Coordinates (Angstroms)
 Number     Number       Type             X           Y           Z
 ---------------------------------------------------------------------
      1          6           0        2.324325    0.171422   -0.209860
      2          6           0        0.965076    0.200606    0.461718
      3          6           0       -2.099831    0.604456   -0.136670
      4          6           0       -1.240491   -0.619987    0.149854
      5          1           0        2.646395   -0.852792   -0.359155
      6          1           0        3.062795    0.682041    0.401074
      7          1           0        2.280360    0.657303   -1.178027
      8          1           0        0.640687    1.229184    0.605849
      9          1           0        1.019439   -0.261896    1.446710
     10          1           0       -2.117470    0.806435   -1.202037
     11          1           0       -3.118564    0.433905    0.199962
     12          1           0       -1.728246    1.490594    0.367854
     13          1           0       -1.219357   -0.827135    1.218730
     14          1           0       -1.668447   -1.486482   -0.339722
     15          8           0        0.063491   -0.501268   -0.343936
 ---------------------------------------------------------------------

 SCF Done:  E(RHF) =  -232.142207280     A.U. after   12 cycles

 The electronic state is 1-A.
 Alpha  occ. eigenvalues --  -20.54995 -11.26819 -11.26791 -11.21066 -11.20842
 Alpha  occ. eigenvalues --   -1.37467  -1.04078  -0.98584  -0.86133  -0.81378
 Alpha  occ. eigenvalues --   -0.67226  -0.64594  -0.64523  -0.57432  -0.54961
 Alpha  occ. eigenvalues --   -0.54423  -0.52372  -0.50193  -0.48723  -0.45705
 Alpha  occ. eigenvalues --   -0.40751
 Alpha virt. eigenvalues --    0.23499   0.26132   0.28058   0.29346   0.31688
 Alpha virt. eigenvalues --    0.32162   0.32631   0.33944   0.34512   0.36182
 Alpha virt. eigenvalues --    0.38244   0.41647   0.42964   0.46018   0.70050

 Mulliken charges:
               1
     1  C   -0.487281
     2  C    0.020991
     3  C   -0.499608
     4  C    0.016582
     5  H    0.173680
     6  H    0.154182
     7  H    0.172659
     8  H    0.136711
     9  H    0.136010
    10  H    0.174117
    11  H    0.156221
    12  H    0.160874
    13  H    0.136157
    14  H    0.169124
    15  O   -0.620420
 Sum of Mulliken charges =  -0.00000

 Dipole moment (field-independent basis, Debye):
    X=             -0.3838    Y=              0.5580    Z=              1.1435  Tot=              1.3290
 Quadrupole moment (field-independent basis, Debye-Ang):
   XX=            -31.0553   YY=            -33.4651   ZZ=            -33.5366
   XY=              1.2033   XZ=              0.4572   YZ=             -0.4650

 Normal termination of Gaussian 16 at Mon Sep 15 21:32:51 2025.
