 Gaussian 16, Revision A.03,
 Gaussian 16:  ES64L-G16RevA.03 25-Dec-2016

 -------------------
 # hf/6-31G(d) force
 -------------------

 -----------------
 Force calculation
 -----------------
 Symbolic Z-matrix:
 Charge =  0 Multiplicity = 1

                         Standard orientation:
 ---------------------------------------------------------------------
 Center     Atomic      Atomic             Coordinates (Angstroms)
 Number     Number       Type             X           Y           Z
 ---------------------------------------------------------------------
      1          6           0        2.331600    0.141556   -0.198303
      2          6           0        0.955309    0.257656    0.427570
      3          6           0       -2.102492    0.590830   -0.153264
      4          6           0       -1.237220   -0.619472    0.173845
      5          1           0        2.647984   -0.895001   -0.217625
      6          1           0        3.058604    0.716529    0.367350
      7          1           0        2.316764    0.510550   -1.217422
      8          1           0        0.640321    1.298751    0.450070
      9          1           0        0.977749   -0.096765    1.457663
     10          1           0       -2.107640    0.767469   -1.223255
     11          1           0       -3.124579    0.417769    0.170961
     12          1           0       -1.747289    1.490736    0.337503
     13          1           0       -1.215349   -0.790962    1.249181
     14          1           0       -1.662169   -1.502860   -0.286568
     15          8           0        0.066553   -0.517454   -0.323369
 ---------------------------------------------------------------------

 SCF Done:  E(RHF) =  -232.142223796     A.U. after   12 cycles

 The electronic state is 1-A.
 Alpha  occ. eigenvalues --  -20.55002 -11.26817 -11.26778 -11.21076 -11.20831
 Alpha  occ. eigenvalues --   -1.37470  -1.04077  -0.98604  -0.86214  -0.81287
 Alpha  occ. eigenvalues --   -0.67242  -0.64714  -0.64395  -0.57539  -0.54874
 Alpha  occ. eigenvalues --   -0.54444  -0.52384  -0.50251  -0.48685  -0.45667
 Alpha  occ. eigenvalues --   -0.40777
 Alpha virt. eigenvalues --    0.23503   0.26136   0.28106   0.29376   0.31573
 Alpha virt. eigenvalues --    0.32145   0.32793   0.33954   0.34492   0.36222
 Alpha virt. eigenvalues --    0.37924   0.41936   0.42785   0.46051   0.69762

 Mulliken charges:
               1
     1  C   -0.487054
     2  C    0.020955
     3  C   -0.501700
     4  C    0.017115
     5  H    0.173157
     6  H    0.154149
     7  H    0.173034
     8  H    0.137604
     9  H    0.135189
    10  H    0.174267
    11  H    0.156964
    12  H    0.160957
    13  H    0.136197
    14  H    0.169435
    15  O   -0.620269
 Sum of Mulliken charges =  -0.00000

 Dipole moment (field-independent basis, Debye):
    X=             -0.4002    Y=              0.6344    Z=              1.0959  Tot=              1.3280
 Quadrupole moment (field-independent basis, Debye-Ang):
   XX=            -31.0694   YY=            -33.5050   ZZ=            -33.4955
   XY=              1.2729   XZ=              0.3944   YZ=             -0.4698

 Normal termination of Gaussian 16 at Mon Sep 15 21:33:14 2025.
