 Gaussian 16, Revision A.03,
 Gaussian 16:  ES64L-G16RevA.03 25-Dec-2016

 -------------------
 # hf/6-31G(d) force
 -------------------

 -----------------
 Force calculation
 -----------------
 Symbolic Z-matrix:
 Charge =  0 Multiplicity = 1

                         Standard orientation:
 ---------------------------------------------------------------------
 Center     Atomic      Atomic             Coordinates (Angstroms)
 Number     Number       Type             X           Y           Z
 ---------------------------------------------------------------------
      1          6           0        1.314565    0.212618   -0.000419
      2          6           0       -0.015471   -0.594985    0.001603
      3          6           0       -1.292530    0.251865    0.001625
      4          9           0       -1.369058    0.964011   -1.096504
      5          9           0        2.085844   -0.191162   -0.977324
      6          9           0        1.947971    0.046007    1.133913
      7          9           0       -0.056118   -1.361866   -1.077636
      8          9           0       -0.046749   -1.369288    1.075622
      9          9           0       -2.329502   -0.549160    0.058273
     10          9           0       -1.317910    1.051041    1.041017
     11          9           0        1.081147    1.497419   -0.159234
 ---------------------------------------------------------------------

 SCF Done:  E(RHF) =  -909.120207739     A.U. after   11 cycles

 The electronic state is 1-A.
 Alpha  occ. eigenvalues --  -26.37910 -26.37862 -26.37741 -26.37671 -26.37626
 Alpha  occ. eigenvalues --  -26.37517 -26.37333 -26.37316 -11.54932 -11.54541
 Alpha  occ. eigenvalues --  -11.48061  -1.78912  -1.77822  -1.73226  -1.68313
 Alpha  occ. eigenvalues --   -1.67766  -1.67664  -1.67332  -1.66056  -1.12106
 Alpha  occ. eigenvalues --   -1.02509  -0.95539  -0.90989  -0.88844  -0.87615
 Alpha  occ. eigenvalues --   -0.86560  -0.85763  -0.85319  -0.81377  -0.76274
 Alpha  occ. eigenvalues --   -0.75325  -0.74795  -0.74040  -0.73925  -0.72733
 Alpha  occ. eigenvalues --   -0.71439  -0.70167  -0.70121  -0.68385  -0.68149
 Alpha  occ. eigenvalues --   -0.68057  -0.67207  -0.67029  -0.63188  -0.56031
 Alpha virt. eigenvalues --    0.24279   0.25120   0.35761   0.39770   0.42306
 Alpha virt. eigenvalues --    0.44561   0.46674   0.51071   0.52276   0.56272
 Alpha virt. eigenvalues --    0.64581   0.65010   0.68332   0.68993   0.71347

 Mulliken charges:
               1
     1  C    1.093340
     2  C    0.577666
     3  C    1.098002
     4  F   -0.342966
     5  F   -0.335750
     6  F   -0.335049
     7  F   -0.361729
     8  F   -0.361039
     9  F   -0.344256
    10  F   -0.343248
    11  F   -0.344973
 Sum of Mulliken charges =  -0.00000

 Dipole moment (field-independent basis, Debye):
    X=              0.0794    Y=              0.0840    Z=              0.0035  Tot=              0.1156
 Quadrupole moment (field-independent basis, Debye-Ang):
   XX=            -56.9777   YY=            -57.2645   ZZ=            -57.2575
   XY=             -0.2174   XZ=             -0.0252   YZ=             -0.0049

 Normal termination of Gaussian 16 at Mon Sep 15 21:51:54 2025.
