 Gaussian 16, Revision A.03,
 Gaussian 16:  ES64L-G16RevA.03 25-Dec-2016

 -------------------
 # hf/6-31G(d) force
 -------------------

 -----------------
 Force calculation
 -----------------
 Symbolic Z-matrix:
 Charge =  0 Multiplicity = 1

                         Standard orientation:
 ---------------------------------------------------------------------
 Center     Atomic      Atomic             Coordinates (Angstroms)
 Number     Number       Type             X           Y           Z
 ---------------------------------------------------------------------
      1          6           0        2.328748    0.146291   -0.199090
      2          6           0        0.952913    0.252783    0.429653
      3          6           0       -2.094765    0.597931   -0.152315
      4          6           0       -1.239967   -0.621397    0.169813
      5          1           0        2.659261   -0.886152   -0.210682
      6          1           0        3.049867    0.735407    0.359363
      7          1           0        2.305740    0.507094   -1.221235
      8          1           0        0.633313    1.292287    0.453518
      9          1           0        0.978550   -0.102468    1.459494
     10          1           0       -2.099629    0.779599   -1.221646
     11          1           0       -3.118159    0.432731    0.171938
     12          1           0       -1.731892    1.492486    0.342466
     13          1           0       -1.224756   -0.800435    1.244108
     14          1           0       -1.668607   -1.498709   -0.298749
     15          8           0        0.066843   -0.525686   -0.320867
 ---------------------------------------------------------------------

 SCF Done:  E(RHF) =  -232.142233082     A.U. after   12 cycles

 The electronic state is 1-A.
 Alpha  occ. eigenvalues --  -20.55005 -11.26824 -11.26773 -11.21087 -11.20837
 Alpha  occ. eigenvalues --   -1.37470  -1.04067  -0.98612  -0.86234  -0.81262
 Alpha  occ. eigenvalues --   -0.67249  -0.64708  -0.64392  -0.57574  -0.54859
 Alpha  occ. eigenvalues --   -0.54430  -0.52384  -0.50250  -0.48709  -0.45647
 Alpha  occ. eigenvalues --   -0.40784
 Alpha virt. eigenvalues --    0.23509   0.26143   0.28104   0.29364   0.31562
 Alpha virt. eigenvalues --    0.32151   0.32777   0.33970   0.34486   0.36227
 Alpha virt. eigenvalues --    0.37973   0.41952   0.42788   0.46037   0.69801

 Mulliken charges:
               1
     1  C   -0.486996
     2  C    0.020906
     3  C   -0.502200
     4  C    0.017168
     5  H    0.172955
     6  H    0.154127
     7  H    0.173143
     8  H    0.137546
     9  H    0.135216
    10  H    0.174150
    11  H    0.157112
    12  H    0.161155
    13  H    0.136203
    14  H    0.169661
    15  O   -0.620148
 Sum of Mulliken charges =  -0.00000

 Dipole moment (field-independent basis, Debye):
    X=             -0.4078    Y=              0.6473    Z=              1.0873  Tot=              1.3295
 Quadrupole moment (field-independent basis, Debye-Ang):
   XX=            -31.0627   YY=            -33.5275   ZZ=            -33.4894
   XY=              1.2733   XZ=              0.4015   YZ=             -0.4715

 Optimization completed.
    -- Stationary point found.
 Normal termination of Gaussian 16 at Wed Sep 10 14:00:51 2025.
