 Gaussian 16, Revision A.03,
 Gaussian 16:  ES64L-G16RevA.03 25-Dec-2016

 -------------------
 # hf/6-31G(d) force
 -------------------

 -----------------
 Force calculation
 -----------------
 Symbolic Z-matrix:
 Charge =  0 Multiplicity = 1

                         Standard orientation:
 ---------------------------------------------------------------------
 Center     Atomic      Atomic             Coordinates (Angstroms)
 Number     Number       Type             X           Y           Z
 ---------------------------------------------------------------------
      1          6           0        1.290615   -0.236617    0.001211
      2          6           0        0.004781    0.608319   -0.009144
      3          6           0       -1.292311   -0.226596   -0.004189
      4          9           0       -1.544258   -0.649714    1.213656
      5          9           0        2.331939    0.516792    0.362565
      6          9           0        1.519830   -0.740149   -1.211936
      7          9           0       -0.008192    1.380324    1.078117
      8          9           0        0.024427    1.385429   -1.091567
      9          9           0       -2.301334    0.507483   -0.412091
     10          9           0       -1.174590   -1.264658   -0.805874
     11          9           0        1.150120   -1.232244    0.875212
 ---------------------------------------------------------------------

 SCF Done:  E(RHF) =  -909.122061027     A.U. after   11 cycles

 The electronic state is 1-A.
 Alpha  occ. eigenvalues --  -26.38220 -26.38113 -26.37887 -26.37838 -26.37804
 Alpha  occ. eigenvalues --  -26.37772 -26.37623 -26.37542 -11.55471 -11.55052
 Alpha  occ. eigenvalues --  -11.48546  -1.78461  -1.76727  -1.72849  -1.68123
 Alpha  occ. eigenvalues --   -1.67696  -1.67192  -1.66913  -1.66024  -1.12566
 Alpha  occ. eigenvalues --   -1.02537  -0.95345  -0.90291  -0.88659  -0.87408
 Alpha  occ. eigenvalues --   -0.86043  -0.85350  -0.84792  -0.81176  -0.76068
 Alpha  occ. eigenvalues --   -0.75352  -0.74095  -0.74047  -0.73421  -0.73005
 Alpha  occ. eigenvalues --   -0.71758  -0.70206  -0.70181  -0.68506  -0.68411
 Alpha  occ. eigenvalues --   -0.68033  -0.67648  -0.67414  -0.63453  -0.56324
 Alpha virt. eigenvalues --    0.24467   0.24598   0.35938   0.37836   0.40239
 Alpha virt. eigenvalues --    0.43163   0.45656   0.48673   0.50254   0.54576
 Alpha virt. eigenvalues --    0.63787   0.64688   0.68813   0.68896   0.71238

 Mulliken charges:
               1
     1  C    1.107639
     2  C    0.600875
     3  C    1.087393
     4  F   -0.337322
     5  F   -0.351743
     6  F   -0.347826
     7  F   -0.362722
     8  F   -0.361844
     9  F   -0.339761
    10  F   -0.343143
    11  F   -0.351545
 Sum of Mulliken charges =  -0.00000

 Dipole moment (field-independent basis, Debye):
    X=             -0.0533    Y=             -0.0573    Z=             -0.0314  Tot=              0.0843
 Quadrupole moment (field-independent basis, Debye-Ang):
   XX=            -57.0183   YY=            -57.3656   ZZ=            -57.4376
   XY=             -0.0371   XZ=              0.0470   YZ=             -0.0239

 Normal termination of Gaussian 16 at Mon Sep 15 21:52:49 2025.
