 Gaussian 16, Revision A.03,
 Gaussian 16:  ES64L-G16RevA.03 25-Dec-2016

 -------------------
 # hf/6-31G(d) force
 -------------------

 -----------------
 Force calculation
 -----------------
 Symbolic Z-matrix:
 Charge =  0 Multiplicity = 1

                         Standard orientation:
 ---------------------------------------------------------------------
 Center     Atomic      Atomic             Coordinates (Angstroms)
 Number     Number       Type             X           Y           Z
 ---------------------------------------------------------------------
      1          6           0        1.315572    0.211587   -0.000640
      2          6           0       -0.017343   -0.595119    0.000415
      3          6           0       -1.293496    0.252784   -0.000239
      4          9           0       -1.353478    0.993203   -1.081048
      5          9           0        2.058381   -0.144664   -1.017763
      6          9           0        1.980066   -0.011299    1.105064
      7          9           0       -0.055741   -1.366623   -1.076202
      8          9           0       -0.053679   -1.364702    1.077671
      9          9           0       -2.333053   -0.545609    0.021728
     10          9           0       -1.329341    1.023918    1.060712
     11          9           0        1.083689    1.502943   -0.089853
 ---------------------------------------------------------------------

 SCF Done:  E(RHF) =  -909.120054505     A.U. after   11 cycles

 The electronic state is 1-A.
 Alpha  occ. eigenvalues --  -26.37902 -26.37822 -26.37775 -26.37638 -26.37624
 Alpha  occ. eigenvalues --  -26.37548 -26.37326 -26.37313 -11.54938 -11.54548
 Alpha  occ. eigenvalues --  -11.48077  -1.78908  -1.77823  -1.73208  -1.68305
 Alpha  occ. eigenvalues --   -1.67764  -1.67654  -1.67343  -1.66043  -1.12073
 Alpha  occ. eigenvalues --   -1.02493  -0.95536  -0.90980  -0.88831  -0.87609
 Alpha  occ. eigenvalues --   -0.86560  -0.85765  -0.85305  -0.81373  -0.76273
 Alpha  occ. eigenvalues --   -0.75313  -0.74792  -0.74051  -0.73930  -0.72720
 Alpha  occ. eigenvalues --   -0.71426  -0.70159  -0.70123  -0.68391  -0.68141
 Alpha  occ. eigenvalues --   -0.68061  -0.67176  -0.67024  -0.63176  -0.56025
 Alpha virt. eigenvalues --    0.24261   0.25063   0.35708   0.39792   0.42295
 Alpha virt. eigenvalues --    0.44585   0.46589   0.51082   0.52299   0.56249
 Alpha virt. eigenvalues --    0.64577   0.65015   0.68313   0.68980   0.71336

 Mulliken charges:
               1
     1  C    1.092899
     2  C    0.577710
     3  C    1.098620
     4  F   -0.343299
     5  F   -0.335767
     6  F   -0.334924
     7  F   -0.361893
     8  F   -0.361210
     9  F   -0.343596
    10  F   -0.344118
    11  F   -0.344421
 Sum of Mulliken charges =  -0.00000

 Dipole moment (field-independent basis, Debye):
    X=              0.0715    Y=              0.0818    Z=             -0.0034  Tot=              0.1087
 Quadrupole moment (field-independent basis, Debye-Ang):
   XX=            -56.9785   YY=            -57.2634   ZZ=            -57.2665
   XY=             -0.2174   XZ=             -0.0058   YZ=             -0.0079

 Normal termination of Gaussian 16 at Mon Sep 15 21:50:43 2025.
