 Gaussian 16, Revision A.03,
 Gaussian 16:  ES64L-G16RevA.03 25-Dec-2016

 -------------------
 # hf/6-31G(d) force
 -------------------

 -----------------
 Force calculation
 -----------------
 Symbolic Z-matrix:
 Charge =  0 Multiplicity = 1

                         Standard orientation:
 ---------------------------------------------------------------------
 Center     Atomic      Atomic             Coordinates (Angstroms)
 Number     Number       Type             X           Y           Z
 ---------------------------------------------------------------------
      1          6           0       -1.295941   -0.228382    0.000381
      2          6           0        0.000858    0.602719    0.002900
      3          6           0        1.291153   -0.233436    0.003347
      4          9           0        1.513691   -0.715874   -1.194531
      5          9           0       -2.287763    0.489713   -0.471261
      6          9           0       -1.592057   -0.610988    1.220547
      7          9           0        0.019518    1.365542   -1.081723
      8          9           0       -0.004117    1.381122    1.075942
      9          9           0        2.305112    0.520243    0.349999
     10          9           0        1.194926   -1.229736    0.854188
     11          9           0       -1.146692   -1.293955   -0.757578
 ---------------------------------------------------------------------

 SCF Done:  E(RHF) =  -909.123709137     A.U. after   11 cycles

 The electronic state is 1-A.
 Alpha  occ. eigenvalues --  -26.38003 -26.37983 -26.37745 -26.37741 -26.37692
 Alpha  occ. eigenvalues --  -26.37663 -26.37473 -26.37421 -11.54841 -11.54702
 Alpha  occ. eigenvalues --  -11.48048  -1.78862  -1.77773  -1.73202  -1.68295
 Alpha  occ. eigenvalues --   -1.67782  -1.67549  -1.67497  -1.66192  -1.12372
 Alpha  occ. eigenvalues --   -1.02585  -0.95593  -0.90804  -0.88932  -0.87636
 Alpha  occ. eigenvalues --   -0.86557  -0.85575  -0.85487  -0.81419  -0.76255
 Alpha  occ. eigenvalues --   -0.75466  -0.74321  -0.74073  -0.73651  -0.73186
 Alpha  occ. eigenvalues --   -0.71760  -0.70234  -0.70173  -0.68438  -0.68414
 Alpha  occ. eigenvalues --   -0.67903  -0.67619  -0.67293  -0.63249  -0.55990
 Alpha virt. eigenvalues --    0.25112   0.25436   0.36620   0.38992   0.42040
 Alpha virt. eigenvalues --    0.44309   0.46744   0.50102   0.51357   0.55771
 Alpha virt. eigenvalues --    0.64303   0.64870   0.68884   0.69017   0.71451

 Mulliken charges:
               1
     1  C    1.087596
     2  C    0.589431
     3  C    1.085668
     4  F   -0.337409
     5  F   -0.339954
     6  F   -0.336769
     7  F   -0.361187
     8  F   -0.360319
     9  F   -0.340002
    10  F   -0.342737
    11  F   -0.344318
 Sum of Mulliken charges =  -0.00000

 Dipole moment (field-independent basis, Debye):
    X=             -0.0189    Y=             -0.0579    Z=              0.0190  Tot=              0.0638
 Quadrupole moment (field-independent basis, Debye-Ang):
   XX=            -56.8488   YY=            -57.2612   ZZ=            -57.2829
   XY=             -0.0272   XZ=              0.0323   YZ=              0.0082

 Normal termination of Gaussian 16 at Mon Sep 15 21:53:05 2025.
