 Gaussian 16, Revision A.03,
 Gaussian 16:  ES64L-G16RevA.03 25-Dec-2016

 -------------------
 # hf/6-31G(d) force
 -------------------

 -----------------
 Force calculation
 -----------------
 Symbolic Z-matrix:
 Charge =  0 Multiplicity = 1

                         Standard orientation:
 ---------------------------------------------------------------------
 Center     Atomic      Atomic             Coordinates (Angstroms)
 Number     Number       Type             X           Y           Z
 ---------------------------------------------------------------------
      1          6           0        1.299200   -0.232524    0.005242
      2          6           0       -0.000659    0.583080   -0.003187
      3          6           0       -1.301484   -0.231485   -0.004023
      4          9           0       -1.522559   -0.722475    1.191146
      5          9           0        2.305817    0.592109    0.136772
      6          9           0        1.440698   -0.895418   -1.117549
      7          9           0       -0.018054    1.357173    1.072618
      8          9           0        0.022049    1.348781   -1.084192
      9          9           0       -2.300624    0.551102   -0.333550
     10          9           0       -1.233728   -1.223931   -0.864686
     11          9           0        1.308363   -1.086723    1.000753
 ---------------------------------------------------------------------

 SCF Done:  E(RHF) =  -909.124734974     A.U. after   11 cycles

 The electronic state is 1-A.
 Alpha  occ. eigenvalues --  -26.37995 -26.37967 -26.37767 -26.37738 -26.37737
 Alpha  occ. eigenvalues --  -26.37695 -26.37474 -26.37451 -11.54763 -11.54695
 Alpha  occ. eigenvalues --  -11.47945  -1.78941  -1.77890  -1.73258  -1.68328
 Alpha  occ. eigenvalues --   -1.67819  -1.67634  -1.67478  -1.66324  -1.12413
 Alpha  occ. eigenvalues --   -1.02750  -0.95696  -0.90892  -0.88855  -0.87745
 Alpha  occ. eigenvalues --   -0.86542  -0.85671  -0.85575  -0.81523  -0.76213
 Alpha  occ. eigenvalues --   -0.75440  -0.74480  -0.73964  -0.73467  -0.73191
 Alpha  occ. eigenvalues --   -0.72063  -0.70242  -0.70156  -0.68574  -0.68471
 Alpha  occ. eigenvalues --   -0.68194  -0.67436  -0.67301  -0.63280  -0.55993
 Alpha virt. eigenvalues --    0.25387   0.25730   0.37413   0.39004   0.42095
 Alpha virt. eigenvalues --    0.44387   0.46114   0.49581   0.51768   0.55533
 Alpha virt. eigenvalues --    0.64159   0.64938   0.68986   0.69328   0.70619

 Mulliken charges:
               1
     1  C    1.080060
     2  C    0.598260
     3  C    1.082420
     4  F   -0.336312
     5  F   -0.340217
     6  F   -0.337634
     7  F   -0.362510
     8  F   -0.362418
     9  F   -0.340941
    10  F   -0.341679
    11  F   -0.339029
 Sum of Mulliken charges =  -0.00000

 Dipole moment (field-independent basis, Debye):
    X=             -0.0058    Y=             -0.1097    Z=             -0.0001  Tot=              0.1099
 Quadrupole moment (field-independent basis, Debye-Ang):
   XX=            -56.8237   YY=            -57.2708   ZZ=            -57.2666
   XY=             -0.0079   XZ=              0.0701   YZ=             -0.0117

 Normal termination of Gaussian 16 at Mon Sep 15 21:54:09 2025.
