 Gaussian 16, Revision A.03,
 Gaussian 16:  ES64L-G16RevA.03 25-Dec-2016

 -------------------
 # hf/6-31G(d) force
 -------------------

 -----------------
 Force calculation
 -----------------
 Symbolic Z-matrix:
 Charge =  0 Multiplicity = 1

                         Standard orientation:
 ---------------------------------------------------------------------
 Center     Atomic      Atomic             Coordinates (Angstroms)
 Number     Number       Type             X           Y           Z
 ---------------------------------------------------------------------
      1          6           0       -1.307351   -0.208939   -0.000744
      2          6           0        0.020997    0.609059   -0.000234
      3          6           0        1.285754   -0.254547   -0.000402
      4          9           0        1.321174   -1.000087   -1.079432
      5          9           0       -2.049814    0.133492   -1.022144
      6          9           0       -1.975600    0.011109    1.102465
      7          9           0        0.061282    1.382609   -1.075565
      8          9           0        0.059614    1.379637    1.077415
      9          9           0        2.346857    0.514420    0.014558
     10          9           0        1.301210   -1.018809    1.066590
     11          9           0       -1.064323   -1.499421   -0.082969
 ---------------------------------------------------------------------

 SCF Done:  E(RHF) =  -909.119884466     A.U. after   11 cycles

 The electronic state is 1-A.
 Alpha  occ. eigenvalues --  -26.37810 -26.37803 -26.37755 -26.37652 -26.37638
 Alpha  occ. eigenvalues --  -26.37614 -26.37344 -26.37329 -11.54934 -11.54530
 Alpha  occ. eigenvalues --  -11.48087  -1.78908  -1.77791  -1.73184  -1.68307
 Alpha  occ. eigenvalues --   -1.67766  -1.67670  -1.67296  -1.66038  -1.12133
 Alpha  occ. eigenvalues --   -1.02401  -0.95542  -0.90876  -0.88890  -0.87598
 Alpha  occ. eigenvalues --   -0.86583  -0.85736  -0.85288  -0.81351  -0.76287
 Alpha  occ. eigenvalues --   -0.75308  -0.74776  -0.74057  -0.73878  -0.72772
 Alpha  occ. eigenvalues --   -0.71418  -0.70184  -0.70166  -0.68418  -0.68108
 Alpha  occ. eigenvalues --   -0.68038  -0.67159  -0.67012  -0.63224  -0.55935
 Alpha virt. eigenvalues --    0.24308   0.25074   0.35670   0.39845   0.42198
 Alpha virt. eigenvalues --    0.44628   0.46676   0.51041   0.52084   0.56217
 Alpha virt. eigenvalues --    0.64593   0.64995   0.68409   0.68791   0.71797

 Mulliken charges:
               1
     1  C    1.089748
     2  C    0.580853
     3  C    1.099008
     4  F   -0.344708
     5  F   -0.334983
     6  F   -0.334020
     7  F   -0.361396
     8  F   -0.361313
     9  F   -0.342421
    10  F   -0.345565
    11  F   -0.345202
 Sum of Mulliken charges =  -0.00000

 Dipole moment (field-independent basis, Debye):
    X=             -0.0585    Y=             -0.0449    Z=             -0.0073  Tot=              0.0741
 Quadrupole moment (field-independent basis, Debye-Ang):
   XX=            -56.9144   YY=            -57.2621   ZZ=            -57.2786
   XY=             -0.2305   XZ=              0.0042   YZ=              0.0035

 Normal termination of Gaussian 16 at Mon Sep 15 21:50:04 2025.
