 Gaussian 16, Revision A.03,
 Gaussian 16:  ES64L-G16RevA.03 25-Dec-2016

 -------------------
 # hf/6-31G(d) force
 -------------------

 -----------------
 Force calculation
 -----------------
 Symbolic Z-matrix:
 Charge =  0 Multiplicity = 1

                         Standard orientation:
 ---------------------------------------------------------------------
 Center     Atomic      Atomic             Coordinates (Angstroms)
 Number     Number       Type             X           Y           Z
 ---------------------------------------------------------------------
      1          6           0       -1.320256   -0.238484   -0.000447
      2          6           0        0.015607    0.680333    0.001042
      3          6           0        1.303268   -0.260117   -0.000644
      4          9           0        1.267229   -0.977745   -1.041107
      5          9           0       -1.992761    0.065955   -0.993448
      6          9           0       -1.920944   -0.041273    1.064722
      7          9           0        0.022130    1.402313   -1.051508
      8          9           0        0.020432    1.401165    1.054075
      9          9           0        2.303192    0.468313    0.001545
     10          9           0        1.261241   -0.981336    1.040127
     11          9           0       -0.959597   -1.458548   -0.074373
 ---------------------------------------------------------------------

 SCF Done:  E(RHF) =  -909.079830311     A.U. after   11 cycles

 The electronic state is 1-A.
 Alpha  occ. eigenvalues --  -26.37580 -26.37455 -26.37377 -26.36671 -26.36655
 Alpha  occ. eigenvalues --  -26.36177 -26.36165 -26.36160 -11.51859 -11.51765
 Alpha  occ. eigenvalues --  -11.44128  -1.82249  -1.81176  -1.74621  -1.70816
 Alpha  occ. eigenvalues --   -1.69987  -1.68859  -1.68494  -1.66938  -1.08229
 Alpha  occ. eigenvalues --   -1.01107  -0.96566  -0.91755  -0.89972  -0.89247
 Alpha  occ. eigenvalues --   -0.88569  -0.87988  -0.87356  -0.82583  -0.76823
 Alpha  occ. eigenvalues --   -0.75998  -0.75407  -0.74463  -0.74355  -0.73657
 Alpha  occ. eigenvalues --   -0.71835  -0.71090  -0.70558  -0.68475  -0.67833
 Alpha  occ. eigenvalues --   -0.67725  -0.66792  -0.66358  -0.59251  -0.49322
 Alpha virt. eigenvalues --    0.31388   0.31902   0.38104   0.42681   0.47487
 Alpha virt. eigenvalues --    0.48173   0.50128   0.54866   0.56080   0.62591
 Alpha virt. eigenvalues --    0.68526   0.69706   0.70639   0.72164   0.74876

 Mulliken charges:
               1
     1  C    0.977784
     2  C    0.514706
     3  C    1.003856
     4  F   -0.318494
     5  F   -0.281225
     6  F   -0.281881
     7  F   -0.338338
     8  F   -0.337476
     9  F   -0.286868
    10  F   -0.321762
    11  F   -0.330304
 Sum of Mulliken charges =  -0.00000

 Dipole moment (field-independent basis, Debye):
    X=             -0.0869    Y=              0.0269    Z=             -0.0066  Tot=              0.0912
 Quadrupole moment (field-independent basis, Debye-Ang):
   XX=            -54.4548   YY=            -56.5343   ZZ=            -56.5734
   XY=             -0.0903   XZ=             -0.0018   YZ=              0.0053

 Normal termination of Gaussian 16 at Mon Sep 15 21:48:46 2025.
