 Gaussian 16, Revision A.03,
 Gaussian 16:  ES64L-G16RevA.03 25-Dec-2016

 -------------------
 # hf/6-31G(d) force
 -------------------

 -----------------
 Force calculation
 -----------------
 Symbolic Z-matrix:
 Charge =  0 Multiplicity = 1

                         Standard orientation:
 ---------------------------------------------------------------------
 Center     Atomic      Atomic             Coordinates (Angstroms)
 Number     Number       Type             X           Y           Z
 ---------------------------------------------------------------------
      1          6           0       -1.268290   -0.198451   -0.001230
      2          6           0        0.015075    0.630447   -0.000191
      3          6           0        1.269848   -0.236946    0.000052
      4          9           0        1.286125   -0.999775   -1.069760
      5          9           0       -2.036493    0.102212   -1.024535
      6          9           0       -1.964303   -0.011563    1.099210
      7          9           0        0.052145    1.401723   -1.064156
      8          9           0        0.049511    1.400336    1.066271
      9          9           0        2.344630    0.477974    0.006491
     10          9           0        1.272795   -1.007327    1.065274
     11          9           0       -1.015498   -1.493612   -0.077883
 ---------------------------------------------------------------------

 SCF Done:  E(RHF) =  -909.117317932     A.U. after   11 cycles

 The electronic state is 1-A.
 Alpha  occ. eigenvalues --  -26.38189 -26.37774 -26.37732 -26.37448 -26.37399
 Alpha  occ. eigenvalues --  -26.37380 -26.37346 -26.37343 -11.54734 -11.54366
 Alpha  occ. eigenvalues --  -11.48231  -1.79256  -1.77715  -1.74132  -1.68322
 Alpha  occ. eigenvalues --   -1.68217  -1.67255  -1.66843  -1.66281  -1.13146
 Alpha  occ. eigenvalues --   -1.02681  -0.95676  -0.91161  -0.89574  -0.87743
 Alpha  occ. eigenvalues --   -0.86421  -0.85792  -0.85169  -0.81815  -0.76664
 Alpha  occ. eigenvalues --   -0.75319  -0.75059  -0.74047  -0.73793  -0.72998
 Alpha  occ. eigenvalues --   -0.71419  -0.70144  -0.70074  -0.68387  -0.68011
 Alpha  occ. eigenvalues --   -0.67620  -0.67126  -0.66663  -0.63957  -0.56534
 Alpha virt. eigenvalues --    0.23784   0.24653   0.36326   0.39214   0.43463
 Alpha virt. eigenvalues --    0.45723   0.48488   0.52046   0.52280   0.56737
 Alpha virt. eigenvalues --    0.64674   0.65067   0.68230   0.68406   0.73056

 Mulliken charges:
               1
     1  C    1.092008
     2  C    0.584172
     3  C    1.088932
     4  F   -0.349665
     5  F   -0.339851
     6  F   -0.339710
     7  F   -0.354729
     8  F   -0.355287
     9  F   -0.325058
    10  F   -0.350574
    11  F   -0.350238
 Sum of Mulliken charges =  -0.00000

 Dipole moment (field-independent basis, Debye):
    X=              0.1405    Y=              0.2565    Z=             -0.0126  Tot=              0.2927
 Quadrupole moment (field-independent basis, Debye-Ang):
   XX=            -56.9956   YY=            -57.2191   ZZ=            -57.2405
   XY=             -0.1460   XZ=              0.0169   YZ=              0.0006

 Normal termination of Gaussian 16 at Mon Sep 15 21:49:18 2025.
