 Gaussian 16, Revision A.03,
 Gaussian 16:  ES64L-G16RevA.03 25-Dec-2016

 -------------------
 # hf/6-31G(d) force
 -------------------

 -----------------
 Force calculation
 -----------------
 Symbolic Z-matrix:
 Charge =  0 Multiplicity = 1

                         Standard orientation:
 ---------------------------------------------------------------------
 Center     Atomic      Atomic             Coordinates (Angstroms)
 Number     Number       Type             X           Y           Z
 ---------------------------------------------------------------------
      1          6           0       -1.298732   -0.232328   -0.000274
      2          6           0       -0.000361    0.579812   -0.000191
      3          6           0        1.299413   -0.230971   -0.000225
      4          9           0        1.365136   -0.992874   -1.066011
      5          9           0       -2.315091    0.594909   -0.001448
      6          9           0       -1.364907   -0.989229    1.069120
      7          9           0       -0.000544    1.348456   -1.081162
      8          9           0       -0.002734    1.345883    1.082768
      9          9           0        2.315857    0.596130   -0.004993
     10          9           0        1.370604   -0.987754    1.068961
     11          9           0       -1.368534   -0.993196   -1.066775
 ---------------------------------------------------------------------

 SCF Done:  E(RHF) =  -909.125506415     A.U. after   11 cycles

 The electronic state is 1-A.
 Alpha  occ. eigenvalues --  -26.37885 -26.37880 -26.37878 -26.37877 -26.37731
 Alpha  occ. eigenvalues --  -26.37723 -26.37496 -26.37487 -11.54725 -11.54717
 Alpha  occ. eigenvalues --  -11.47903  -1.78944  -1.77896  -1.73178  -1.68397
 Alpha  occ. eigenvalues --   -1.67752  -1.67574  -1.67548  -1.66409  -1.12516
 Alpha  occ. eigenvalues --   -1.02803  -0.95741  -0.90820  -0.88828  -0.87824
 Alpha  occ. eigenvalues --   -0.86545  -0.85678  -0.85524  -0.81575  -0.76147
 Alpha  occ. eigenvalues --   -0.75261  -0.74838  -0.73608  -0.73440  -0.73123
 Alpha  occ. eigenvalues --   -0.72353  -0.70298  -0.70171  -0.68543  -0.68530
 Alpha  occ. eigenvalues --   -0.68412  -0.67434  -0.67251  -0.63280  -0.56004
 Alpha virt. eigenvalues --    0.25269   0.26090   0.38070   0.38988   0.41965
 Alpha virt. eigenvalues --    0.44394   0.45768   0.49092   0.51695   0.55375
 Alpha virt. eigenvalues --    0.64103   0.64923   0.69190   0.69312   0.70408

 Mulliken charges:
               1
     1  C    1.081553
     2  C    0.605448
     3  C    1.081255
     4  F   -0.338897
     5  F   -0.342093
     6  F   -0.338998
     7  F   -0.364260
     8  F   -0.364414
     9  F   -0.341926
    10  F   -0.338789
    11  F   -0.338879
 Sum of Mulliken charges =  -0.00000

 Dipole moment (field-independent basis, Debye):
    X=              0.0016    Y=             -0.1325    Z=             -0.0021  Tot=              0.1326
 Quadrupole moment (field-independent basis, Debye-Ang):
   XX=            -56.8197   YY=            -57.2244   ZZ=            -57.2909
   XY=              0.0060   XZ=             -0.0002   YZ=             -0.0014

 Normal termination of Gaussian 16 at Mon Sep 15 21:56:08 2025.
