 Gaussian 16, Revision A.03,
 Gaussian 16:  ES64L-G16RevA.03 25-Dec-2016

 -------------------
 # hf/6-31G(d) force
 -------------------

 -----------------
 Force calculation
 -----------------
 Symbolic Z-matrix:
 Charge =  0 Multiplicity = 1

                         Standard orientation:
 ---------------------------------------------------------------------
 Center     Atomic      Atomic             Coordinates (Angstroms)
 Number     Number       Type             X           Y           Z
 ---------------------------------------------------------------------
      1          6           0        1.315361    0.211433   -0.000426
      2          6           0       -0.017844   -0.595466   -0.000336
      3          6           0       -1.293558    0.253036   -0.000199
      4          9           0       -1.352607    0.993917   -1.080725
      5          9           0        2.058149   -0.143899   -1.018249
      6          9           0        1.980264   -0.012275    1.104743
      7          9           0       -0.055978   -1.366589   -1.076504
      8          9           0       -0.054123   -1.365344    1.077584
      9          9           0       -2.333564   -0.544500    0.021029
     10          9           0       -1.328694    1.023141    1.061436
     11          9           0        1.083915    1.502879   -0.088674
 ---------------------------------------------------------------------

 SCF Done:  E(RHF) =  -909.120052850     A.U. after   11 cycles

 The electronic state is 1-A.
 Alpha  occ. eigenvalues --  -26.37899 -26.37828 -26.37780 -26.37625 -26.37623
 Alpha  occ. eigenvalues --  -26.37555 -26.37335 -26.37305 -11.54935 -11.54550
 Alpha  occ. eigenvalues --  -11.48080  -1.78907  -1.77825  -1.73204  -1.68304
 Alpha  occ. eigenvalues --   -1.67762  -1.67656  -1.67348  -1.66041  -1.12069
 Alpha  occ. eigenvalues --   -1.02488  -0.95537  -0.90976  -0.88831  -0.87610
 Alpha  occ. eigenvalues --   -0.86561  -0.85763  -0.85306  -0.81372  -0.76274
 Alpha  occ. eigenvalues --   -0.75312  -0.74788  -0.74058  -0.73927  -0.72722
 Alpha  occ. eigenvalues --   -0.71424  -0.70161  -0.70123  -0.68393  -0.68141
 Alpha  occ. eigenvalues --   -0.68061  -0.67172  -0.67026  -0.63174  -0.56020
 Alpha virt. eigenvalues --    0.24267   0.25061   0.35702   0.39797   0.42289
 Alpha virt. eigenvalues --    0.44592   0.46574   0.51074   0.52291   0.56246
 Alpha virt. eigenvalues --    0.64578   0.65015   0.68314   0.68977   0.71344

 Mulliken charges:
               1
     1  C    1.092660
     2  C    0.577847
     3  C    1.098593
     4  F   -0.343333
     5  F   -0.336043
     6  F   -0.334756
     7  F   -0.361364
     8  F   -0.361754
     9  F   -0.343451
    10  F   -0.344055
    11  F   -0.344343
 Sum of Mulliken charges =  -0.00000

 Dipole moment (field-independent basis, Debye):
    X=              0.0664    Y=              0.0818    Z=             -0.0067  Tot=              0.1056
 Quadrupole moment (field-independent basis, Debye-Ang):
   XX=            -56.9789   YY=            -57.2617   ZZ=            -57.2680
   XY=             -0.2186   XZ=             -0.0021   YZ=             -0.0000

 Normal termination of Gaussian 16 at Mon Sep 15 21:50:36 2025.
