 Gaussian 16, Revision A.03,
 Gaussian 16:  ES64L-G16RevA.03 25-Dec-2016

 -------------------
 # hf/6-31G(d) force
 -------------------

 -----------------
 Force calculation
 -----------------
 Symbolic Z-matrix:
 Charge =  0 Multiplicity = 1

                         Standard orientation:
 ---------------------------------------------------------------------
 Center     Atomic      Atomic             Coordinates (Angstroms)
 Number     Number       Type             X           Y           Z
 ---------------------------------------------------------------------
      1          6           0        1.320847    0.219578   -0.000087
      2          6           0       -0.022637   -0.582314   -0.003149
      3          6           0       -1.304968    0.257949   -0.001457
      4          9           0       -1.385941    0.985894   -1.077267
      5          9           0        2.071616   -0.157212   -1.020949
      6          9           0        1.990722   -0.019902    1.112212
      7          9           0       -0.051948   -1.347225   -1.077969
      8          9           0       -0.051148   -1.348349    1.078724
      9          9           0       -2.319875   -0.574229    0.026260
     10          9           0       -1.358553    1.023210    1.053753
     11          9           0        1.109632    1.507670   -0.091637
 ---------------------------------------------------------------------

 SCF Done:  E(RHF) =  -909.119329921     A.U. after   11 cycles

 The electronic state is 1-A.
 Alpha  occ. eigenvalues --  -26.38339 -26.38110 -26.38056 -26.37415 -26.37337
 Alpha  occ. eigenvalues --  -26.37323 -26.37272 -26.37193 -11.54980 -11.54536
 Alpha  occ. eigenvalues --  -11.48075  -1.79043  -1.77707  -1.73303  -1.68572
 Alpha  occ. eigenvalues --   -1.67777  -1.67466  -1.67417  -1.65878  -1.11878
 Alpha  occ. eigenvalues --   -1.02469  -0.95562  -0.91033  -0.88800  -0.87757
 Alpha  occ. eigenvalues --   -0.86381  -0.85760  -0.85333  -0.81435  -0.76360
 Alpha  occ. eigenvalues --   -0.75211  -0.74940  -0.74310  -0.73875  -0.72575
 Alpha  occ. eigenvalues --   -0.71337  -0.70224  -0.70057  -0.68384  -0.68272
 Alpha  occ. eigenvalues --   -0.68047  -0.67165  -0.66941  -0.63087  -0.55891
 Alpha virt. eigenvalues --    0.24278   0.25209   0.35606   0.39804   0.42206
 Alpha virt. eigenvalues --    0.44417   0.46217   0.50877   0.52341   0.56189
 Alpha virt. eigenvalues --    0.64708   0.65010   0.68119   0.69152   0.70912

 Mulliken charges:
               1
     1  C    1.096992
     2  C    0.576558
     3  C    1.092316
     4  F   -0.334412
     5  F   -0.346252
     6  F   -0.343255
     7  F   -0.357688
     8  F   -0.362673
     9  F   -0.347943
    10  F   -0.337316
    11  F   -0.336327
 Sum of Mulliken charges =  -0.00000

 Dipole moment (field-independent basis, Debye):
    X=             -0.0501    Y=              0.2367    Z=             -0.0415  Tot=              0.2455
 Quadrupole moment (field-independent basis, Debye-Ang):
   XX=            -57.2954   YY=            -57.1093   ZZ=            -57.2740
   XY=             -0.2172   XZ=              0.0270   YZ=              0.0132

 Normal termination of Gaussian 16 at Mon Sep 15 21:50:12 2025.
