 Gaussian 16, Revision A.03,
 Gaussian 16:  ES64L-G16RevA.03 25-Dec-2016

 -------------------
 # hf/6-31G(d) force
 -------------------

 -----------------
 Force calculation
 -----------------
 Symbolic Z-matrix:
 Charge =  0 Multiplicity = 1

                         Standard orientation:
 ---------------------------------------------------------------------
 Center     Atomic      Atomic             Coordinates (Angstroms)
 Number     Number       Type             X           Y           Z
 ---------------------------------------------------------------------
      1          6           0        2.290644    0.291199   -0.200742
      2          6           0        0.992506   -0.025165    0.517245
      3          6           0       -2.073792    0.657516   -0.036217
      4          6           0       -1.252336   -0.621545    0.048759
      5          1           0        2.656507   -0.580820   -0.730977
      6          1           0        3.050086    0.608062    0.507801
      7          1           0        2.137305    1.083637   -0.924530
      8          1           0        0.641108    0.853641    1.054458
      9          1           0        1.143903   -0.812524    1.254763
     10          1           0       -2.098281    1.009960   -1.061575
     11          1           0       -3.094981    0.480389    0.287412
     12          1           0       -1.655290    1.446247    0.580941
     13          1           0       -1.229947   -0.997507    1.070147
     14          1           0       -1.703898   -1.389065   -0.568777
     15          8           0        0.051419   -0.439257   -0.430492
 ---------------------------------------------------------------------

 SCF Done:  E(RHF) =  -232.141977737     A.U. after   11 cycles

 The electronic state is 1-A.
 Alpha  occ. eigenvalues --  -20.54939 -11.26829 -11.26820 -11.21014 -11.20868
 Alpha  occ. eigenvalues --   -1.37420  -1.04059  -0.98537  -0.85919  -0.81642
 Alpha  occ. eigenvalues --   -0.67155  -0.65126  -0.63935  -0.57306  -0.55205
 Alpha  occ. eigenvalues --   -0.54241  -0.52332  -0.50064  -0.48890  -0.45830
 Alpha  occ. eigenvalues --   -0.40645
 Alpha virt. eigenvalues --    0.23453   0.26204   0.28071   0.29471   0.31709
 Alpha virt. eigenvalues --    0.32203   0.32501   0.33760   0.34468   0.36061
 Alpha virt. eigenvalues --    0.38285   0.41169   0.43247   0.45855   0.71394

 Mulliken charges:
               1
     1  C   -0.488000
     2  C    0.021255
     3  C   -0.494307
     4  C    0.013633
     5  H    0.174167
     6  H    0.154293
     7  H    0.172222
     8  H    0.134640
     9  H    0.138504
    10  H    0.174000
    11  H    0.154782
    12  H    0.160667
    13  H    0.137198
    14  H    0.167856
    15  O   -0.620910
 Sum of Mulliken charges =  -0.00000

 Dipole moment (field-independent basis, Debye):
    X=             -0.3413    Y=              0.2624    Z=              1.2682  Tot=              1.3393
 Quadrupole moment (field-independent basis, Debye-Ang):
   XX=            -30.9604   YY=            -33.3494   ZZ=            -33.7070
   XY=              0.9384   XZ=              0.6616   YZ=             -0.4491

 Normal termination of Gaussian 16 at Mon Sep 15 21:32:25 2025.
