 Gaussian 16, Revision A.03,
 Gaussian 16:  ES64L-G16RevA.03 25-Dec-2016

 -------------------
 # hf/6-31G(d) force
 -------------------

 -----------------
 Force calculation
 -----------------
 Symbolic Z-matrix:
 Charge =  0 Multiplicity = 1

                         Standard orientation:
 ---------------------------------------------------------------------
 Center     Atomic      Atomic             Coordinates (Angstroms)
 Number     Number       Type             X           Y           Z
 ---------------------------------------------------------------------
      1          6           0        2.323663    0.174377   -0.210404
      2          6           0        0.965989    0.194916    0.464356
      3          6           0       -2.099858    0.605532   -0.134554
      4          6           0       -1.240582   -0.620025    0.147571
      5          1           0        2.646206   -0.847972   -0.370258
      6          1           0        3.063005    0.679567    0.403989
      7          1           0        2.276979    0.669926   -1.173552
      8          1           0        0.641272    1.221499    0.620442
      9          1           0        1.023005   -0.278200    1.444068
     10          1           0       -2.121176    0.807545   -1.199614
     11          1           0       -3.117380    0.436477    0.206462
     12          1           0       -1.725180    1.491404    0.368045
     13          1           0       -1.218482   -0.830440    1.215802
     14          1           0       -1.668965   -1.484995   -0.344637
     15          8           0        0.063180   -0.499201   -0.346570
 ---------------------------------------------------------------------

 SCF Done:  E(RHF) =  -232.142202870     A.U. after   12 cycles

 The electronic state is 1-A.
 Alpha  occ. eigenvalues --  -20.54996 -11.26822 -11.26787 -11.21062 -11.20840
 Alpha  occ. eigenvalues --   -1.37467  -1.04080  -0.98585  -0.86123  -0.81391
 Alpha  occ. eigenvalues --   -0.67226  -0.64612  -0.64508  -0.57429  -0.54969
 Alpha  occ. eigenvalues --   -0.54422  -0.52371  -0.50189  -0.48726  -0.45714
 Alpha  occ. eigenvalues --   -0.40750
 Alpha virt. eigenvalues --    0.23502   0.26131   0.28052   0.29344   0.31699
 Alpha virt. eigenvalues --    0.32168   0.32609   0.33951   0.34530   0.36178
 Alpha virt. eigenvalues --    0.38269   0.41615   0.42982   0.46020   0.70071

 Mulliken charges:
               1
     1  C   -0.487296
     2  C    0.020984
     3  C   -0.499380
     4  C    0.016467
     5  H    0.173689
     6  H    0.154194
     7  H    0.172650
     8  H    0.136634
     9  H    0.136076
    10  H    0.174093
    11  H    0.156140
    12  H    0.160937
    13  H    0.136156
    14  H    0.169096
    15  O   -0.620440
 Sum of Mulliken charges =  -0.00000

 Dipole moment (field-independent basis, Debye):
    X=             -0.3821    Y=              0.5499    Z=              1.1488  Tot=              1.3297
 Quadrupole moment (field-independent basis, Debye-Ang):
   XX=            -31.0550   YY=            -33.4579   ZZ=            -33.5429
   XY=              1.1963   XZ=              0.4634   YZ=             -0.4648

 Normal termination of Gaussian 16 at Mon Sep 15 21:32:49 2025.
