 Gaussian 16, Revision A.03,
 Gaussian 16:  ES64L-G16RevA.03 25-Dec-2016

 -------------------
 # hf/6-31G(d) force
 -------------------

 -----------------
 Force calculation
 -----------------
 Symbolic Z-matrix:
 Charge =  0 Multiplicity = 1

                         Standard orientation:
 ---------------------------------------------------------------------
 Center     Atomic      Atomic             Coordinates (Angstroms)
 Number     Number       Type             X           Y           Z
 ---------------------------------------------------------------------
      1          6           0        2.298756    0.265303   -0.206595
      2          6           0        0.985003    0.024016    0.513223
      3          6           0       -2.078819    0.647781   -0.058673
      4          6           0       -1.248690   -0.622213    0.071337
      5          1           0        2.658166   -0.651733   -0.660254
      6          1           0        3.052708    0.625646    0.486944
      7          1           0        2.168711    0.999603   -0.993741
      8          1           0        0.632897    0.945187    0.974174
      9          1           0        1.116042   -0.704558    1.312756
     10          1           0       -2.100181    0.965221   -1.096087
     11          1           0       -3.101772    0.469451    0.257474
     12          1           0       -1.673084    1.459381    0.537049
     13          1           0       -1.222855   -0.968887    1.103518
     14          1           0       -1.698400   -1.409787   -0.520512
     15          8           0        0.053783   -0.452356   -0.414634
 ---------------------------------------------------------------------

 SCF Done:  E(RHF) =  -232.142026479     A.U. after   11 cycles

 The electronic state is 1-A.
 Alpha  occ. eigenvalues --  -20.54958 -11.26830 -11.26809 -11.21030 -11.20879
 Alpha  occ. eigenvalues --   -1.37454  -1.04042  -0.98532  -0.85954  -0.81614
 Alpha  occ. eigenvalues --   -0.67163  -0.65005  -0.64073  -0.57287  -0.55182
 Alpha  occ. eigenvalues --   -0.54288  -0.52321  -0.50081  -0.48867  -0.45826
 Alpha  occ. eigenvalues --   -0.40671
 Alpha virt. eigenvalues --    0.23467   0.26182   0.28034   0.29423   0.31705
 Alpha virt. eigenvalues --    0.32245   0.32500   0.33834   0.34468   0.36087
 Alpha virt. eigenvalues --    0.38424   0.41179   0.43247   0.45860   0.71063

 Mulliken charges:
               1
     1  C   -0.487939
     2  C    0.020844
     3  C   -0.495312
     4  C    0.013511
     5  H    0.174094
     6  H    0.154395
     7  H    0.172451
     8  H    0.135013
     9  H    0.137962
    10  H    0.174023
    11  H    0.155190
    12  H    0.160849
    13  H    0.137075
    14  H    0.168111
    15  O   -0.620268
 Sum of Mulliken charges =  -0.00000

 Dipole moment (field-independent basis, Debye):
    X=             -0.3508    Y=              0.3217    Z=              1.2482  Tot=              1.3359
 Quadrupole moment (field-independent basis, Debye-Ang):
   XX=            -30.9667   YY=            -33.3815   ZZ=            -33.6769
   XY=              0.9952   XZ=              0.6404   YZ=             -0.4595

 Normal termination of Gaussian 16 at Mon Sep 15 21:32:31 2025.
