 Gaussian 16, Revision A.03,
 Gaussian 16:  ES64L-G16RevA.03 25-Dec-2016

 -------------------
 # hf/6-31G(d) force
 -------------------

 -----------------
 Force calculation
 -----------------
 Symbolic Z-matrix:
 Charge =  0 Multiplicity = 1

                         Standard orientation:
 ---------------------------------------------------------------------
 Center     Atomic      Atomic             Coordinates (Angstroms)
 Number     Number       Type             X           Y           Z
 ---------------------------------------------------------------------
      1          6           0        2.331255    0.136336   -0.193473
      2          6           0        0.949481    0.271663    0.416159
      3          6           0       -2.095975    0.592956   -0.156543
      4          6           0       -1.238619   -0.621471    0.177051
      5          1           0        2.658025   -0.897004   -0.163890
      6          1           0        3.049194    0.742664    0.350315
      7          1           0        2.320575    0.459207   -1.228261
      8          1           0        0.634658    1.312502    0.398065
      9          1           0        0.962175   -0.045038    1.458595
     10          1           0       -2.096292    0.768658   -1.226810
     11          1           0       -3.120220    0.425433    0.163908
     12          1           0       -1.740115    1.491629    0.335439
     13          1           0       -1.222793   -0.789625    1.253041
     14          1           0       -1.665618   -1.504033   -0.282652
     15          8           0        0.067946   -0.530162   -0.314615
 ---------------------------------------------------------------------

 SCF Done:  E(RHF) =  -232.142230872     A.U. after   12 cycles

 The electronic state is 1-A.
 Alpha  occ. eigenvalues --  -20.55004 -11.26822 -11.26764 -11.21091 -11.20830
 Alpha  occ. eigenvalues --   -1.37476  -1.04070  -0.98621  -0.86268  -0.81234
 Alpha  occ. eigenvalues --   -0.67259  -0.64779  -0.64317  -0.57619  -0.54822
 Alpha  occ. eigenvalues --   -0.54439  -0.52391  -0.50273  -0.48693  -0.45638
 Alpha  occ. eigenvalues --   -0.40790
 Alpha virt. eigenvalues --    0.23509   0.26151   0.28127   0.29383   0.31521
 Alpha virt. eigenvalues --    0.32148   0.32837   0.33971   0.34469   0.36248
 Alpha virt. eigenvalues --    0.37820   0.42058   0.42719   0.46062   0.69715

 Mulliken charges:
               1
     1  C   -0.486997
     2  C    0.020982
     3  C   -0.503012
     4  C    0.017440
     5  H    0.172796
     6  H    0.154092
     7  H    0.173232
     8  H    0.137884
     9  H    0.134909
    10  H    0.174233
    11  H    0.157331
    12  H    0.161201
    13  H    0.136232
    14  H    0.169775
    15  O   -0.620099
 Sum of Mulliken charges =  -0.00000

 Dipole moment (field-independent basis, Debye):
    X=             -0.4136    Y=              0.6709    Z=              1.0705  Tot=              1.3294
 Quadrupole moment (field-independent basis, Debye-Ang):
   XX=            -31.0697   YY=            -33.5372   ZZ=            -33.4750
   XY=              1.2944   XZ=              0.3753   YZ=             -0.4711

 Normal termination of Gaussian 16 at Mon Sep 15 21:33:25 2025.
