 Gaussian 16, Revision A.03,
 Gaussian 16:  ES64L-G16RevA.03 25-Dec-2016

 -------------------
 # hf/6-31G(d) force
 -------------------

 -----------------
 Force calculation
 -----------------
 Symbolic Z-matrix:
 Charge =  0 Multiplicity = 1

                         Standard orientation:
 ---------------------------------------------------------------------
 Center     Atomic      Atomic             Coordinates (Angstroms)
 Number     Number       Type             X           Y           Z
 ---------------------------------------------------------------------
      1          6           0       -1.298842   -0.231318   -0.000346
      2          6           0       -0.000207    0.581156    0.000203
      3          6           0        1.298324   -0.231643   -0.000815
      4          9           0        1.408347   -0.921975   -1.110520
      5          9           0       -2.314781    0.590880   -0.094231
      6          9           0       -1.408464   -0.921136    1.110007
      7          9           0        0.000188    1.351358   -1.079396
      8          9           0        0.000180    1.346326    1.084196
      9          9           0        2.314655    0.591595    0.090375
     10          9           0        1.324624   -1.058050    1.019589
     11          9           0       -1.324264   -1.057794   -1.019383
 ---------------------------------------------------------------------

 SCF Done:  E(RHF) =  -909.125445973     A.U. after   11 cycles

 The electronic state is 1-A.
 Alpha  occ. eigenvalues --  -26.37936 -26.37920 -26.37839 -26.37827 -26.37745
 Alpha  occ. eigenvalues --  -26.37725 -26.37507 -26.37476 -11.54737 -11.54731
 Alpha  occ. eigenvalues --  -11.47919  -1.78923  -1.77871  -1.73177  -1.68381
 Alpha  occ. eigenvalues --   -1.67753  -1.67571  -1.67534  -1.66392  -1.12520
 Alpha  occ. eigenvalues --   -1.02795  -0.95726  -0.90814  -0.88831  -0.87806
 Alpha  occ. eigenvalues --   -0.86534  -0.85660  -0.85518  -0.81561  -0.76150
 Alpha  occ. eigenvalues --   -0.75308  -0.74757  -0.73688  -0.73423  -0.73126
 Alpha  occ. eigenvalues --   -0.72299  -0.70289  -0.70175  -0.68541  -0.68534
 Alpha  occ. eigenvalues --   -0.68379  -0.67428  -0.67275  -0.63285  -0.56018
 Alpha virt. eigenvalues --    0.25278   0.26015   0.37975   0.38936   0.41944
 Alpha virt. eigenvalues --    0.44348   0.45863   0.49112   0.51658   0.55366
 Alpha virt. eigenvalues --    0.64095   0.64914   0.69171   0.69313   0.70439

 Mulliken charges:
               1
     1  C    1.081409
     2  C    0.604701
     3  C    1.081878
     4  F   -0.337904
     5  F   -0.341645
     6  F   -0.338232
     7  F   -0.363815
     8  F   -0.364390
     9  F   -0.342237
    10  F   -0.340229
    11  F   -0.339536
 Sum of Mulliken charges =  -0.00000

 Dipole moment (field-independent basis, Debye):
    X=             -0.0059    Y=             -0.1257    Z=             -0.0082  Tot=              0.1261
 Quadrupole moment (field-independent basis, Debye-Ang):
   XX=            -56.8181   YY=            -57.2327   ZZ=            -57.2923
   XY=             -0.0028   XZ=              0.0066   YZ=              0.0000

 Normal termination of Gaussian 16 at Mon Sep 15 21:55:12 2025.
