 Gaussian 16, Revision A.03,
 Gaussian 16:  ES64L-G16RevA.03 25-Dec-2016

 -------------------
 # hf/6-31G(d) force
 -------------------

 -----------------
 Force calculation
 -----------------
 Symbolic Z-matrix:
 Charge =  0 Multiplicity = 1

                         Standard orientation:
 ---------------------------------------------------------------------
 Center     Atomic      Atomic             Coordinates (Angstroms)
 Number     Number       Type             X           Y           Z
 ---------------------------------------------------------------------
      1          6           0       -1.301702   -0.216443    0.001331
      2          6           0        0.013165    0.602380    0.008148
      3          6           0        1.294499   -0.245162    0.003325
      4          9           0        1.457724   -0.792365   -1.178812
      5          9           0       -2.230682    0.419015   -0.669376
      6          9           0       -1.730467   -0.418800    1.218227
      7          9           0        0.044222    1.372887   -1.068775
      8          9           0        0.017091    1.370548    1.085234
      9          9           0        2.322872    0.525353    0.258000
     10          9           0        1.227742   -1.188177    0.917410
     11          9           0       -1.112477   -1.382311   -0.570444
 ---------------------------------------------------------------------

 SCF Done:  E(RHF) =  -909.122262069     A.U. after   11 cycles

 The electronic state is 1-A.
 Alpha  occ. eigenvalues --  -26.38057 -26.37786 -26.37758 -26.37692 -26.37681
 Alpha  occ. eigenvalues --  -26.37498 -26.37451 -26.37399 -11.54722 -11.54698
 Alpha  occ. eigenvalues --  -11.48053  -1.78947  -1.77852  -1.73315  -1.68332
 Alpha  occ. eigenvalues --   -1.67812  -1.67565  -1.67446  -1.66197  -1.12192
 Alpha  occ. eigenvalues --   -1.02524  -0.95603  -0.90902  -0.88938  -0.87646
 Alpha  occ. eigenvalues --   -0.86602  -0.85669  -0.85467  -0.81473  -0.76319
 Alpha  occ. eigenvalues --   -0.75421  -0.74520  -0.74011  -0.73820  -0.73088
 Alpha  occ. eigenvalues --   -0.71641  -0.70220  -0.70125  -0.68384  -0.68296
 Alpha  occ. eigenvalues --   -0.67958  -0.67420  -0.67217  -0.63183  -0.55931
 Alpha virt. eigenvalues --    0.24871   0.25400   0.36263   0.39348   0.42150
 Alpha virt. eigenvalues --    0.44801   0.46707   0.50604   0.51592   0.56157
 Alpha virt. eigenvalues --    0.64440   0.65005   0.68692   0.69002   0.71500

 Mulliken charges:
               1
     1  C    1.081526
     2  C    0.583031
     3  C    1.093397
     4  F   -0.341321
     5  F   -0.338868
     6  F   -0.330536
     7  F   -0.360287
     8  F   -0.359129
     9  F   -0.340610
    10  F   -0.344183
    11  F   -0.343018
 Sum of Mulliken charges =  -0.00000

 Dipole moment (field-independent basis, Debye):
    X=              0.0234    Y=             -0.0487    Z=              0.0535  Tot=              0.0760
 Quadrupole moment (field-independent basis, Debye-Ang):
   XX=            -56.9138   YY=            -57.2431   ZZ=            -57.2552
   XY=             -0.1305   XZ=              0.0018   YZ=              0.0071

 Normal termination of Gaussian 16 at Mon Sep 15 21:52:33 2025.
