 Gaussian 16, Revision A.03,
 Gaussian 16:  ES64L-G16RevA.03 25-Dec-2016

 -------------------
 # hf/6-31G(d) force
 -------------------

 -----------------
 Force calculation
 -----------------
 Symbolic Z-matrix:
 Charge =  0 Multiplicity = 1

                         Standard orientation:
 ---------------------------------------------------------------------
 Center     Atomic      Atomic             Coordinates (Angstroms)
 Number     Number       Type             X           Y           Z
 ---------------------------------------------------------------------
      1          6           0       -1.299355   -0.231593   -0.001791
      2          6           0        0.000452    0.579469   -0.001426
      3          6           0        1.299230   -0.232258    0.000836
      4          9           0        1.388610   -0.962245   -1.085423
      5          9           0       -2.314621    0.596533   -0.061383
      6          9           0       -1.395636   -0.944355    1.095800
      7          9           0        0.006038    1.348172   -1.082591
      8          9           0       -0.003873    1.346424    1.080836
      9          9           0        2.315486    0.594675    0.042776
     10          9           0        1.345516   -1.019458    1.049182
     11          9           0       -1.341739   -1.036824   -1.037609
 ---------------------------------------------------------------------

 SCF Done:  E(RHF) =  -909.125482944     A.U. after   11 cycles

 The electronic state is 1-A.
 Alpha  occ. eigenvalues --  -26.37931 -26.37923 -26.37866 -26.37850 -26.37724
 Alpha  occ. eigenvalues --  -26.37723 -26.37491 -26.37482 -11.54750 -11.54729
 Alpha  occ. eigenvalues --  -11.47913  -1.78917  -1.77866  -1.73174  -1.68391
 Alpha  occ. eigenvalues --   -1.67737  -1.67559  -1.67545  -1.66397  -1.12514
 Alpha  occ. eigenvalues --   -1.02802  -0.95727  -0.90809  -0.88817  -0.87810
 Alpha  occ. eigenvalues --   -0.86532  -0.85665  -0.85510  -0.81560  -0.76138
 Alpha  occ. eigenvalues --   -0.75281  -0.74808  -0.73633  -0.73429  -0.73112
 Alpha  occ. eigenvalues --   -0.72334  -0.70297  -0.70168  -0.68549  -0.68539
 Alpha  occ. eigenvalues --   -0.68397  -0.67433  -0.67266  -0.63284  -0.56012
 Alpha virt. eigenvalues --    0.25262   0.26046   0.38015   0.38951   0.41911
 Alpha virt. eigenvalues --    0.44326   0.45768   0.49086   0.51652   0.55343
 Alpha virt. eigenvalues --    0.64087   0.64915   0.69181   0.69308   0.70395

 Mulliken charges:
               1
     1  C    1.082197
     2  C    0.605374
     3  C    1.081706
     4  F   -0.338491
     5  F   -0.342635
     6  F   -0.338746
     7  F   -0.364304
     8  F   -0.364297
     9  F   -0.342292
    10  F   -0.339097
    11  F   -0.339415
 Sum of Mulliken charges =  -0.00000

 Dipole moment (field-independent basis, Debye):
    X=              0.0030    Y=             -0.1378    Z=             -0.0073  Tot=              0.1380
 Quadrupole moment (field-independent basis, Debye-Ang):
   XX=            -56.8279   YY=            -57.2316   ZZ=            -57.2917
   XY=             -0.0035   XZ=              0.0203   YZ=             -0.0002

 Normal termination of Gaussian 16 at Mon Sep 15 21:55:36 2025.
