 Gaussian 16, Revision A.03,
 Gaussian 16:  ES64L-G16RevA.03 25-Dec-2016

 -------------------
 # hf/6-31G(d) force
 -------------------

 -----------------
 Force calculation
 -----------------
 Symbolic Z-matrix:
 Charge =  0 Multiplicity = 1

                         Standard orientation:
 ---------------------------------------------------------------------
 Center     Atomic      Atomic             Coordinates (Angstroms)
 Number     Number       Type             X           Y           Z
 ---------------------------------------------------------------------
      1          6           0        1.315146    0.212242    0.000396
      2          6           0       -0.015043   -0.594819    0.001523
      3          6           0       -1.292195    0.251944    0.001552
      4          9           0       -1.360035    0.980828   -1.087560
      5          9           0        2.068563   -0.161363   -1.002684
      6          9           0        1.968779    0.012895    1.115849
      7          9           0       -0.055931   -1.362653   -1.077222
      8          9           0       -0.048781   -1.368314    1.076866
      9          9           0       -2.327201   -0.552083    0.036625
     10          9           0       -1.328549    1.037157    1.052197
     11          9           0        1.077883    1.500622   -0.116385
 ---------------------------------------------------------------------

 SCF Done:  E(RHF) =  -909.120096834     A.U. after   11 cycles

 The electronic state is 1-A.
 Alpha  occ. eigenvalues --  -26.37902 -26.37837 -26.37724 -26.37677 -26.37643
 Alpha  occ. eigenvalues --  -26.37537 -26.37322 -26.37319 -11.54929 -11.54548
 Alpha  occ. eigenvalues --  -11.48065  -1.78914  -1.77816  -1.73199  -1.68307
 Alpha  occ. eigenvalues --   -1.67780  -1.67640  -1.67342  -1.66046  -1.12107
 Alpha  occ. eigenvalues --   -1.02510  -0.95533  -0.90992  -0.88829  -0.87610
 Alpha  occ. eigenvalues --   -0.86556  -0.85777  -0.85303  -0.81361  -0.76270
 Alpha  occ. eigenvalues --   -0.75326  -0.74778  -0.74020  -0.73950  -0.72720
 Alpha  occ. eigenvalues --   -0.71435  -0.70164  -0.70124  -0.68383  -0.68146
 Alpha  occ. eigenvalues --   -0.68061  -0.67197  -0.67022  -0.63185  -0.56043
 Alpha virt. eigenvalues --    0.24233   0.25119   0.35749   0.39763   0.42288
 Alpha virt. eigenvalues --    0.44562   0.46661   0.51091   0.52313   0.56284
 Alpha virt. eigenvalues --    0.64583   0.65023   0.68310   0.68993   0.71358

 Mulliken charges:
               1
     1  C    1.093790
     2  C    0.577381
     3  C    1.099108
     4  F   -0.344008
     5  F   -0.336124
     6  F   -0.333867
     7  F   -0.361750
     8  F   -0.361707
     9  F   -0.343900
    10  F   -0.343810
    11  F   -0.345113
 Sum of Mulliken charges =  -0.00000

 Dipole moment (field-independent basis, Debye):
    X=              0.0871    Y=              0.0801    Z=              0.0126  Tot=              0.1190
 Quadrupole moment (field-independent basis, Debye-Ang):
   XX=            -56.9619   YY=            -57.2738   ZZ=            -57.2606
   XY=             -0.2122   XZ=             -0.0070   YZ=              0.0009

 Normal termination of Gaussian 16 at Mon Sep 15 21:51:22 2025.
