 Gaussian 16, Revision A.03,
 Gaussian 16:  ES64L-G16RevA.03 25-Dec-2016

 -------------------
 # hf/6-31G(d) force
 -------------------

 -----------------
 Force calculation
 -----------------
 Symbolic Z-matrix:
 Charge =  0 Multiplicity = 1

                         Standard orientation:
 ---------------------------------------------------------------------
 Center     Atomic      Atomic             Coordinates (Angstroms)
 Number     Number       Type             X           Y           Z
 ---------------------------------------------------------------------
      1          6           0       -1.380354   -0.257566   -0.001372
      2          6           0       -0.028891    0.505765   -0.005168
      3          6           0        1.460227   -0.312179    0.001259
      4          9           0        1.343054   -0.995529   -1.098401
      5          9           0       -2.070964    0.182587   -1.042255
      6          9           0       -1.995248    0.054542    1.129983
      7          9           0        0.090513    1.400057   -1.164265
      8          9           0        0.089462    1.400089    1.160028
      9          9           0        2.312767    0.552707    0.024104
     10          9           0        1.312893   -1.020282    1.080423
     11          9           0       -1.116466   -1.531518   -0.086097
 ---------------------------------------------------------------------

 SCF Done:  E(RHF) =  -909.040885809     A.U. after   12 cycles

 The electronic state is 1-A.
 Alpha  occ. eigenvalues --  -26.42128 -26.39382 -26.39085 -26.39044 -26.37686
 Alpha  occ. eigenvalues --  -26.37665 -26.32790 -26.32612 -11.57008 -11.55986
 Alpha  occ. eigenvalues --  -11.46138  -1.82847  -1.77691  -1.72753  -1.69822
 Alpha  occ. eigenvalues --   -1.68736  -1.67167  -1.62382  -1.57996  -1.08801
 Alpha  occ. eigenvalues --   -1.02481  -0.95425  -0.90696  -0.90246  -0.89461
 Alpha  occ. eigenvalues --   -0.86769  -0.86534  -0.81027  -0.76811  -0.76401
 Alpha  occ. eigenvalues --   -0.74957  -0.74872  -0.73335  -0.73256  -0.70795
 Alpha  occ. eigenvalues --   -0.70686  -0.70234  -0.69580  -0.69340  -0.67995
 Alpha  occ. eigenvalues --   -0.67848  -0.65057  -0.62586  -0.60028  -0.51105
 Alpha virt. eigenvalues --    0.21320   0.22161   0.30133   0.36225   0.39396
 Alpha virt. eigenvalues --    0.42268   0.42696   0.49507   0.50447   0.52843
 Alpha virt. eigenvalues --    0.63594   0.64639   0.68045   0.70598   0.73262

 Mulliken charges:
               1
     1  C    1.146758
     2  C    0.521463
     3  C    1.077556
     4  F   -0.328475
     5  F   -0.341167
     6  F   -0.340620
     7  F   -0.424792
     8  F   -0.427127
     9  F   -0.225682
    10  F   -0.328265
    11  F   -0.329649
 Sum of Mulliken charges =  -0.00000

 Dipole moment (field-independent basis, Debye):
    X=              0.9895    Y=             -1.7072    Z=             -0.0234  Tot=              1.9734
 Quadrupole moment (field-independent basis, Debye-Ang):
   XX=            -52.1492   YY=            -58.5335   ZZ=            -58.5248
   XY=             -0.2064   XZ=              0.0459   YZ=             -0.0143

 Normal termination of Gaussian 16 at Mon Sep 15 21:49:33 2025.
