 Gaussian 16, Revision A.03,
 Gaussian 16:  ES64L-G16RevA.03 25-Dec-2016

 -------------------
 # hf/6-31G(d) force
 -------------------

 -----------------
 Force calculation
 -----------------
 Symbolic Z-matrix:
 Charge =  0 Multiplicity = 1

                         Standard orientation:
 ---------------------------------------------------------------------
 Center     Atomic      Atomic             Coordinates (Angstroms)
 Number     Number       Type             X           Y           Z
 ---------------------------------------------------------------------
      1          6           0        2.313586    0.204937   -0.214109
      2          6           0        0.972101    0.140174    0.488405
      3          6           0       -2.092347    0.620814   -0.111453
      4          6           0       -1.241567   -0.621305    0.122564
      5          1           0        2.643399   -0.794470   -0.476364
      6          1           0        3.061865    0.661115    0.425839
      7          1           0        2.237092    0.792136   -1.122958
      8          1           0        0.632485    1.139886    0.753165
      9          1           0        1.058294   -0.430363    1.413161
     10          1           0       -2.121578    0.852831   -1.171646
     11          1           0       -3.109811    0.446972    0.227610
     12          1           0       -1.709315    1.489040    0.415476
     13          1           0       -1.217951   -0.883835    1.178997
     14          1           0       -1.678563   -1.458876   -0.406922
     15          8           0        0.061681   -0.485269   -0.368600
 ---------------------------------------------------------------------

 SCF Done:  E(RHF) =  -232.142145565     A.U. after   12 cycles

 The electronic state is 1-A.
 Alpha  occ. eigenvalues --  -20.54979 -11.26808 -11.26795 -11.21081 -11.20842
 Alpha  occ. eigenvalues --   -1.37489  -1.04072  -0.98554  -0.86053  -0.81455
 Alpha  occ. eigenvalues --   -0.67225  -0.64733  -0.64376  -0.57386  -0.55048
 Alpha  occ. eigenvalues --   -0.54353  -0.52312  -0.50151  -0.48782  -0.45745
 Alpha  occ. eigenvalues --   -0.40738
 Alpha virt. eigenvalues --    0.23500   0.26136   0.28015   0.29333   0.31724
 Alpha virt. eigenvalues --    0.32170   0.32562   0.33951   0.34515   0.36165
 Alpha virt. eigenvalues --    0.38411   0.41399   0.43145   0.45958   0.70321

 Mulliken charges:
               1
     1  C   -0.487268
     2  C    0.020493
     3  C   -0.498272
     4  C    0.015552
     5  H    0.173974
     6  H    0.154496
     7  H    0.172299
     8  H    0.136237
     9  H    0.136562
    10  H    0.173842
    11  H    0.155611
    12  H    0.161208
    13  H    0.136561
    14  H    0.168771
    15  O   -0.620065
 Sum of Mulliken charges =  -0.00000

 Dipole moment (field-independent basis, Debye):
    X=             -0.3733    Y=              0.4780    Z=              1.1864  Tot=              1.3325
 Quadrupole moment (field-independent basis, Debye-Ang):
   XX=            -31.0375   YY=            -33.4128   ZZ=            -33.6045
   XY=              1.1319   XZ=              0.5418   YZ=             -0.4694

 Normal termination of Gaussian 16 at Mon Sep 15 21:32:38 2025.
