 Gaussian 16, Revision A.03,
 Gaussian 16:  ES64L-G16RevA.03 25-Dec-2016

 -------------------
 # hf/6-31G(d) force
 -------------------

 -----------------
 Force calculation
 -----------------
 Symbolic Z-matrix:
 Charge =  0 Multiplicity = 1

                         Standard orientation:
 ---------------------------------------------------------------------
 Center     Atomic      Atomic             Coordinates (Angstroms)
 Number     Number       Type             X           Y           Z
 ---------------------------------------------------------------------
      1          6           0       -1.299309   -0.231253    0.001220
      2          6           0        0.000096    0.580035    0.000333
      3          6           0        1.298670   -0.231936   -0.000658
      4          9           0        1.400418   -0.935087   -1.105289
      5          9           0       -2.314486    0.592605   -0.093070
      6          9           0       -1.409304   -0.919715    1.111506
      7          9           0       -0.000806    1.347067   -1.082119
      8          9           0        0.002147    1.348043    1.082768
      9          9           0        2.315716    0.594799    0.073955
     10          9           0        1.333489   -1.047833    1.030536
     11          9           0       -1.326812   -1.057776   -1.018884
 ---------------------------------------------------------------------

 SCF Done:  E(RHF) =  -909.125427518     A.U. after   11 cycles

 The electronic state is 1-A.
 Alpha  occ. eigenvalues --  -26.37929 -26.37918 -26.37879 -26.37857 -26.37739
 Alpha  occ. eigenvalues --  -26.37738 -26.37511 -26.37499 -11.54796 -11.54754
 Alpha  occ. eigenvalues --  -11.47955  -1.78865  -1.77796  -1.73155  -1.68368
 Alpha  occ. eigenvalues --   -1.67718  -1.67529  -1.67509  -1.66392  -1.12539
 Alpha  occ. eigenvalues --   -1.02805  -0.95699  -0.90781  -0.88798  -0.87784
 Alpha  occ. eigenvalues --   -0.86500  -0.85627  -0.85466  -0.81550  -0.76133
 Alpha  occ. eigenvalues --   -0.75277  -0.74763  -0.73657  -0.73417  -0.73105
 Alpha  occ. eigenvalues --   -0.72311  -0.70293  -0.70162  -0.68547  -0.68532
 Alpha  occ. eigenvalues --   -0.68395  -0.67440  -0.67281  -0.63300  -0.56058
 Alpha virt. eigenvalues --    0.25194   0.25976   0.37907   0.38867   0.41832
 Alpha virt. eigenvalues --    0.44189   0.45776   0.49009   0.51584   0.55289
 Alpha virt. eigenvalues --    0.64028   0.64901   0.69159   0.69304   0.70388

 Mulliken charges:
               1
     1  C    1.081872
     2  C    0.605555
     3  C    1.084313
     4  F   -0.339011
     5  F   -0.341985
     6  F   -0.337473
     7  F   -0.364087
     8  F   -0.364438
     9  F   -0.343164
    10  F   -0.341420
    11  F   -0.340163
 Sum of Mulliken charges =  -0.00000

 Dipole moment (field-independent basis, Debye):
    X=             -0.0092    Y=             -0.1284    Z=              0.0023  Tot=              0.1287
 Quadrupole moment (field-independent basis, Debye-Ang):
   XX=            -56.8368   YY=            -57.2390   ZZ=            -57.3064
   XY=              0.0019   XZ=             -0.0098   YZ=             -0.0034

 Normal termination of Gaussian 16 at Mon Sep 15 21:55:04 2025.
