 Gaussian 16, Revision A.03,
 Gaussian 16:  ES64L-G16RevA.03 25-Dec-2016

 -------------------
 # hf/6-31G(d) force
 -------------------

 -----------------
 Force calculation
 -----------------
 Symbolic Z-matrix:
 Charge =  0 Multiplicity = 1

                         Standard orientation:
 ---------------------------------------------------------------------
 Center     Atomic      Atomic             Coordinates (Angstroms)
 Number     Number       Type             X           Y           Z
 ---------------------------------------------------------------------
      1          6           0        2.309137    0.221390   -0.213679
      2          6           0        0.974538    0.109587    0.497912
      3          6           0       -2.087186    0.629402   -0.097970
      4          6           0       -1.243185   -0.621909    0.109188
      5          1           0        2.646769   -0.759806   -0.529966
      6          1           0        3.059544    0.651646    0.441728
      7          1           0        2.218189    0.851299   -1.091987
      8          1           0        0.627815    1.091474    0.816642
      9          1           0        1.073640   -0.505764    1.392400
     10          1           0       -2.112024    0.884830   -1.153338
     11          1           0       -3.107629    0.452848    0.229141
     12          1           0       -1.699337    1.482114    0.450504
     13          1           0       -1.218598   -0.910673    1.159225
     14          1           0       -1.685432   -1.444656   -0.438294
     15          8           0        0.059655   -0.478016   -0.381095
 ---------------------------------------------------------------------

 SCF Done:  E(RHF) =  -232.142109949     A.U. after   11 cycles

 The electronic state is 1-A.
 Alpha  occ. eigenvalues --  -20.54976 -11.26818 -11.26804 -11.21076 -11.20860
 Alpha  occ. eigenvalues --   -1.37491  -1.04050  -0.98537  -0.86024  -0.81498
 Alpha  occ. eigenvalues --   -0.67204  -0.64795  -0.64298  -0.57344  -0.55094
 Alpha  occ. eigenvalues --   -0.54331  -0.52304  -0.50129  -0.48810  -0.45768
 Alpha  occ. eigenvalues --   -0.40722
 Alpha virt. eigenvalues --    0.23489   0.26148   0.28007   0.29345   0.31721
 Alpha virt. eigenvalues --    0.32189   0.32557   0.33923   0.34485   0.36144
 Alpha virt. eigenvalues --    0.38463   0.41316   0.43191   0.45915   0.70512

 Mulliken charges:
               1
     1  C   -0.487423
     2  C    0.020314
     3  C   -0.497495
     4  C    0.014736
     5  H    0.174093
     6  H    0.154524
     7  H    0.172339
     8  H    0.135920
     9  H    0.136951
    10  H    0.173868
    11  H    0.155571
    12  H    0.161125
    13  H    0.136710
    14  H    0.168576
    15  O   -0.619809
 Sum of Mulliken charges =  -0.00000

 Dipole moment (field-independent basis, Debye):
    X=             -0.3679    Y=              0.4377    Z=              1.2036  Tot=              1.3325
 Quadrupole moment (field-independent basis, Debye-Ang):
   XX=            -31.0140   YY=            -33.4117   ZZ=            -33.6260
   XY=              1.0959   XZ=              0.5770   YZ=             -0.4693

 Normal termination of Gaussian 16 at Mon Sep 15 21:32:36 2025.
