 Gaussian 16, Revision A.03,
 Gaussian 16:  ES64L-G16RevA.03 25-Dec-2016

 -------------------
 # hf/6-31G(d) force
 -------------------

 -----------------
 Force calculation
 -----------------
 Symbolic Z-matrix:
 Charge =  0 Multiplicity = 1

                         Standard orientation:
 ---------------------------------------------------------------------
 Center     Atomic      Atomic             Coordinates (Angstroms)
 Number     Number       Type             X           Y           Z
 ---------------------------------------------------------------------
      1          6           0        1.297781   -0.233191   -0.004661
      2          6           0       -0.001120    0.579359   -0.008846
      3          6           0       -1.302138   -0.229993   -0.006582
      4          9           0       -1.410495   -0.880091    1.128555
      5          9           0        2.308125    0.592939    0.124197
      6          9           0        1.435366   -0.901989   -1.124613
      7          9           0       -0.003557    1.325857    1.087674
      8          9           0        0.012353    1.365224   -1.075045
      9          9           0       -2.320487    0.586601   -0.130905
     10          9           0       -1.324705   -1.089534   -0.997993
     11          9           0        1.307051   -1.076458    1.001523
 ---------------------------------------------------------------------

 SCF Done:  E(RHF) =  -909.125249757     A.U. after   11 cycles

 The electronic state is 1-A.
 Alpha  occ. eigenvalues --  -26.38035 -26.37902 -26.37849 -26.37772 -26.37769
 Alpha  occ. eigenvalues --  -26.37662 -26.37584 -26.37387 -11.54765 -11.54705
 Alpha  occ. eigenvalues --  -11.47903  -1.78906  -1.77847  -1.73217  -1.68402
 Alpha  occ. eigenvalues --   -1.67729  -1.67564  -1.67519  -1.66407  -1.12487
 Alpha  occ. eigenvalues --   -1.02803  -0.95707  -0.90828  -0.88825  -0.87800
 Alpha  occ. eigenvalues --   -0.86541  -0.85641  -0.85505  -0.81590  -0.76158
 Alpha  occ. eigenvalues --   -0.75337  -0.74700  -0.73721  -0.73429  -0.73115
 Alpha  occ. eigenvalues --   -0.72281  -0.70307  -0.70150  -0.68548  -0.68538
 Alpha  occ. eigenvalues --   -0.68351  -0.67416  -0.67294  -0.63255  -0.56009
 Alpha virt. eigenvalues --    0.25240   0.26077   0.37891   0.38992   0.41911
 Alpha virt. eigenvalues --    0.44260   0.45890   0.49188   0.51657   0.55440
 Alpha virt. eigenvalues --    0.64086   0.64914   0.69153   0.69309   0.70415

 Mulliken charges:
               1
     1  C    1.082069
     2  C    0.603594
     3  C    1.082266
     4  F   -0.339270
     5  F   -0.342960
     6  F   -0.337750
     7  F   -0.365069
     8  F   -0.362287
     9  F   -0.341699
    10  F   -0.339000
    11  F   -0.339894
 Sum of Mulliken charges =  -0.00000

 Dipole moment (field-independent basis, Debye):
    X=             -0.0279    Y=             -0.1308    Z=             -0.0720  Tot=              0.1519
 Quadrupole moment (field-independent basis, Debye-Ang):
   XX=            -56.8379   YY=            -57.2140   ZZ=            -57.2937
   XY=             -0.0180   XZ=              0.0297   YZ=             -0.0154

 Normal termination of Gaussian 16 at Mon Sep 15 21:54:40 2025.
