 Gaussian 16, Revision A.03,
 Gaussian 16:  ES64L-G16RevA.03 25-Dec-2016

 -------------------
 # hf/6-31G(d) force
 -------------------

 -----------------
 Force calculation
 -----------------
 Symbolic Z-matrix:
 Charge =  0 Multiplicity = 1

                         Standard orientation:
 ---------------------------------------------------------------------
 Center     Atomic      Atomic             Coordinates (Angstroms)
 Number     Number       Type             X           Y           Z
 ---------------------------------------------------------------------
      1          6           0        1.314386    0.212703    0.004035
      2          6           0       -0.015408   -0.595327    0.005005
      3          6           0       -1.292186    0.252432   -0.003019
      4          9           0       -1.357727    0.977771   -1.088690
      5          9           0        2.068363   -0.161653   -1.005370
      6          9           0        1.969236    0.013990    1.113853
      7          9           0       -0.055280   -1.367238   -1.072387
      8          9           0       -0.049120   -1.364690    1.079977
      9          9           0       -2.326764   -0.551266    0.035422
     10          9           0       -1.329324    1.038949    1.050214
     11          9           0        1.076089    1.500931   -0.117033
 ---------------------------------------------------------------------

 SCF Done:  E(RHF) =  -909.120015305     A.U. after   11 cycles

 The electronic state is 1-A.
 Alpha  occ. eigenvalues --  -26.37895 -26.37884 -26.37846 -26.37708 -26.37525
 Alpha  occ. eigenvalues --  -26.37447 -26.37385 -26.37246 -11.54921 -11.54526
 Alpha  occ. eigenvalues --  -11.48041  -1.78926  -1.77835  -1.73241  -1.68360
 Alpha  occ. eigenvalues --   -1.67771  -1.67665  -1.67292  -1.66049  -1.12093
 Alpha  occ. eigenvalues --   -1.02501  -0.95541  -0.90997  -0.88849  -0.87624
 Alpha  occ. eigenvalues --   -0.86570  -0.85769  -0.85328  -0.81378  -0.76267
 Alpha  occ. eigenvalues --   -0.75298  -0.74814  -0.74056  -0.73949  -0.72730
 Alpha  occ. eigenvalues --   -0.71419  -0.70232  -0.70061  -0.68395  -0.68146
 Alpha  occ. eigenvalues --   -0.68046  -0.67180  -0.67026  -0.63178  -0.56004
 Alpha virt. eigenvalues --    0.24246   0.25181   0.35769   0.39827   0.42295
 Alpha virt. eigenvalues --    0.44556   0.46700   0.51143   0.52286   0.56355
 Alpha virt. eigenvalues --    0.64607   0.65023   0.68327   0.68999   0.71382

 Mulliken charges:
               1
     1  C    1.093919
     2  C    0.577219
     3  C    1.098111
     4  F   -0.339465
     5  F   -0.340921
     6  F   -0.329772
     7  F   -0.362853
     8  F   -0.359858
     9  F   -0.343856
    10  F   -0.347039
    11  F   -0.345486
 Sum of Mulliken charges =  -0.00000

 Dipole moment (field-independent basis, Debye):
    X=              0.0751    Y=              0.0857    Z=              0.0340  Tot=              0.1189
 Quadrupole moment (field-independent basis, Debye-Ang):
   XX=            -56.9700   YY=            -57.2673   ZZ=            -57.2479
   XY=             -0.2129   XZ=              0.1395   YZ=             -0.0540

 Normal termination of Gaussian 16 at Mon Sep 15 21:51:07 2025.
