 Gaussian 16, Revision A.03,
 Gaussian 16:  ES64L-G16RevA.03 25-Dec-2016

 -------------------
 # hf/6-31G(d) force
 -------------------

 -----------------
 Force calculation
 -----------------
 Symbolic Z-matrix:
 Charge =  0 Multiplicity = 1

                         Standard orientation:
 ---------------------------------------------------------------------
 Center     Atomic      Atomic             Coordinates (Angstroms)
 Number     Number       Type             X           Y           Z
 ---------------------------------------------------------------------
      1          6           0        1.297794   -0.235292   -0.002666
      2          6           0        0.000960    0.579880   -0.005646
      3          6           0       -1.301529   -0.228512   -0.004759
      4          9           0       -1.432064   -0.859493    1.136240
      5          9           0        2.311875    0.590853    0.113471
      6          9           0        1.424534   -0.909698   -1.119987
      7          9           0       -0.000726    1.334269    1.085795
      8          9           0        0.013217    1.359080   -1.077734
      9          9           0       -2.313848    0.586176   -0.158024
     10          9           0       -1.312380   -1.105324   -0.979524
     11          9           0        1.311242   -1.073245    1.008477
 ---------------------------------------------------------------------

 SCF Done:  E(RHF) =  -909.125288856     A.U. after   11 cycles

 The electronic state is 1-A.
 Alpha  occ. eigenvalues --  -26.37983 -26.37954 -26.37872 -26.37760 -26.37755
 Alpha  occ. eigenvalues --  -26.37645 -26.37543 -26.37410 -11.54729 -11.54704
 Alpha  occ. eigenvalues --  -11.47898  -1.78961  -1.77896  -1.73188  -1.68414
 Alpha  occ. eigenvalues --   -1.67784  -1.67580  -1.67524  -1.66389  -1.12483
 Alpha  occ. eigenvalues --   -1.02795  -0.95725  -0.90855  -0.88831  -0.87817
 Alpha  occ. eigenvalues --   -0.86571  -0.85674  -0.85526  -0.81567  -0.76156
 Alpha  occ. eigenvalues --   -0.75358  -0.74697  -0.73757  -0.73448  -0.73115
 Alpha  occ. eigenvalues --   -0.72257  -0.70300  -0.70152  -0.68550  -0.68544
 Alpha  occ. eigenvalues --   -0.68334  -0.67410  -0.67301  -0.63258  -0.56000
 Alpha virt. eigenvalues --    0.25294   0.26038   0.37873   0.39046   0.41983
 Alpha virt. eigenvalues --    0.44391   0.45927   0.49199   0.51711   0.55481
 Alpha virt. eigenvalues --    0.64134   0.64929   0.69155   0.69303   0.70438

 Mulliken charges:
               1
     1  C    1.083085
     2  C    0.603162
     3  C    1.079242
     4  F   -0.337622
     5  F   -0.344236
     6  F   -0.337274
     7  F   -0.364787
     8  F   -0.362996
     9  F   -0.339955
    10  F   -0.338559
    11  F   -0.340059
 Sum of Mulliken charges =  -0.00000

 Dipole moment (field-independent basis, Debye):
    X=             -0.0253    Y=             -0.1365    Z=             -0.0510  Tot=              0.1478
 Quadrupole moment (field-independent basis, Debye-Ang):
   XX=            -56.8357   YY=            -57.2180   ZZ=            -57.2832
   XY=             -0.0464   XZ=              0.0258   YZ=             -0.0083

 Normal termination of Gaussian 16 at Mon Sep 15 21:54:48 2025.
