 Gaussian 16, Revision A.03,
 Gaussian 16:  ES64L-G16RevA.03 25-Dec-2016

 -------------------
 # hf/6-31G(d) force
 -------------------

 -----------------
 Force calculation
 -----------------
 Symbolic Z-matrix:
 Charge =  0 Multiplicity = 1

                         Standard orientation:
 ---------------------------------------------------------------------
 Center     Atomic      Atomic             Coordinates (Angstroms)
 Number     Number       Type             X           Y           Z
 ---------------------------------------------------------------------
      1          6           0       -1.298764   -0.231668   -0.000530
      2          6           0       -0.000217    0.580935   -0.000349
      3          6           0        1.298519   -0.231535   -0.000458
      4          9           0        1.405942   -0.928143   -1.106616
      5          9           0       -2.315182    0.592094   -0.087148
      6          9           0       -1.405234   -0.926126    1.107561
      7          9           0        0.000825    1.350462   -1.080518
      8          9           0       -0.000758    1.346661    1.082998
      9          9           0        2.314633    0.592533    0.083856
     10          9           0        1.327480   -1.051959    1.024159
     11          9           0       -1.327396   -1.054012   -1.023402
 ---------------------------------------------------------------------

 SCF Done:  E(RHF) =  -909.125455273     A.U. after   11 cycles

 The electronic state is 1-A.
 Alpha  occ. eigenvalues --  -26.37940 -26.37922 -26.37842 -26.37838 -26.37734
 Alpha  occ. eigenvalues --  -26.37728 -26.37505 -26.37483 -11.54744 -11.54735
 Alpha  occ. eigenvalues --  -11.47921  -1.78911  -1.77857  -1.73181  -1.68381
 Alpha  occ. eigenvalues --   -1.67740  -1.67563  -1.67532  -1.66397  -1.12521
 Alpha  occ. eigenvalues --   -1.02796  -0.95722  -0.90807  -0.88826  -0.87802
 Alpha  occ. eigenvalues --   -0.86526  -0.85658  -0.85508  -0.81563  -0.76146
 Alpha  occ. eigenvalues --   -0.75303  -0.74766  -0.73676  -0.73420  -0.73119
 Alpha  occ. eigenvalues --   -0.72309  -0.70291  -0.70172  -0.68540  -0.68538
 Alpha  occ. eigenvalues --   -0.68385  -0.67431  -0.67274  -0.63287  -0.56017
 Alpha virt. eigenvalues --    0.25270   0.26019   0.37973   0.38926   0.41919
 Alpha virt. eigenvalues --    0.44323   0.45838   0.49097   0.51637   0.55353
 Alpha virt. eigenvalues --    0.64088   0.64910   0.69174   0.69310   0.70425

 Mulliken charges:
               1
     1  C    1.082032
     2  C    0.604948
     3  C    1.081746
     4  F   -0.338050
     5  F   -0.342277
     6  F   -0.338380
     7  F   -0.363886
     8  F   -0.364269
     9  F   -0.342196
    10  F   -0.339936
    11  F   -0.339733
 Sum of Mulliken charges =  -0.00000

 Dipole moment (field-independent basis, Debye):
    X=             -0.0021    Y=             -0.1281    Z=             -0.0068  Tot=              0.1283
 Quadrupole moment (field-independent basis, Debye-Ang):
   XX=            -56.8245   YY=            -57.2327   ZZ=            -57.2926
   XY=              0.0010   XZ=              0.0089   YZ=             -0.0007

 Normal termination of Gaussian 16 at Mon Sep 15 21:55:20 2025.
