 Gaussian 16, Revision A.03,
 Gaussian 16:  ES64L-G16RevA.03 25-Dec-2016

 -------------------
 # hf/6-31G(d) force
 -------------------

 -----------------
 Force calculation
 -----------------
 Symbolic Z-matrix:
 Charge =  0 Multiplicity = 1

                         Standard orientation:
 ---------------------------------------------------------------------
 Center     Atomic      Atomic             Coordinates (Angstroms)
 Number     Number       Type             X           Y           Z
 ---------------------------------------------------------------------
      1          6           0        2.330221    0.150811   -0.203095
      2          6           0        0.959581    0.238761    0.440213
      3          6           0       -2.103362    0.594772   -0.148097
      4          6           0       -1.238569   -0.619684    0.166154
      5          1           0        2.649413   -0.883433   -0.266927
      6          1           0        3.061595    0.704116    0.378085
      7          1           0        2.304438    0.562193   -1.206241
      8          1           0        0.643581    1.277728    0.503789
      9          1           0        0.992338   -0.153311    1.456208
     10          1           0       -2.109534    0.782178   -1.216466
     11          1           0       -3.125968    0.419589    0.173600
     12          1           0       -1.747360    1.489129    0.352146
     13          1           0       -1.217039   -0.802075    1.239742
     14          1           0       -1.662396   -1.498981   -0.303422
     15          8           0        0.065464   -0.510637   -0.330196
 ---------------------------------------------------------------------

 SCF Done:  E(RHF) =  -232.142218921     A.U. after   12 cycles

 The electronic state is 1-A.
 Alpha  occ. eigenvalues --  -20.54996 -11.26828 -11.26782 -11.21076 -11.20843
 Alpha  occ. eigenvalues --   -1.37451  -1.04068  -0.98586  -0.86183  -0.81316
 Alpha  occ. eigenvalues --   -0.67225  -0.64644  -0.64459  -0.57490  -0.54917
 Alpha  occ. eigenvalues --   -0.54416  -0.52358  -0.50233  -0.48702  -0.45675
 Alpha  occ. eigenvalues --   -0.40767
 Alpha virt. eigenvalues --    0.23500   0.26129   0.28086   0.29373   0.31590
 Alpha virt. eigenvalues --    0.32148   0.32752   0.33942   0.34483   0.36211
 Alpha virt. eigenvalues --    0.38012   0.41830   0.42834   0.46028   0.69858

 Mulliken charges:
               1
     1  C   -0.487123
     2  C    0.021142
     3  C   -0.501020
     4  C    0.016983
     5  H    0.173256
     6  H    0.154201
     7  H    0.172801
     8  H    0.137272
     9  H    0.135472
    10  H    0.174242
    11  H    0.156714
    12  H    0.160995
    13  H    0.136199
    14  H    0.169370
    15  O   -0.620506
 Sum of Mulliken charges =  -0.00000

 Dipole moment (field-independent basis, Debye):
    X=             -0.3952    Y=              0.6069    Z=              1.1144  Tot=              1.3290
 Quadrupole moment (field-independent basis, Debye-Ang):
   XX=            -31.0594   YY=            -33.4842   ZZ=            -33.5127
   XY=              1.2500   XZ=              0.4208   YZ=             -0.4688

 Normal termination of Gaussian 16 at Mon Sep 15 21:33:07 2025.
