 Gaussian 16, Revision A.03,
 Gaussian 16:  ES64L-G16RevA.03 25-Dec-2016

 -------------------
 # hf/6-31G(d) force
 -------------------

 -----------------
 Force calculation
 -----------------
 Symbolic Z-matrix:
 Charge =  0 Multiplicity = 1

                         Standard orientation:
 ---------------------------------------------------------------------
 Center     Atomic      Atomic             Coordinates (Angstroms)
 Number     Number       Type             X           Y           Z
 ---------------------------------------------------------------------
      1          6           0        2.331744    0.139474   -0.196957
      2          6           0        0.954078    0.262285    0.424186
      3          6           0       -2.101746    0.590316   -0.154469
      4          6           0       -1.237144   -0.619608    0.175349
      5          1           0        2.649111   -0.896940   -0.204030
      6          1           0        3.057014    0.721243    0.363810
      7          1           0        2.319216    0.496551   -1.220152
      8          1           0        0.639383    1.303471    0.435592
      9          1           0        0.973713   -0.081967    1.457716
     10          1           0       -2.106459    0.765320   -1.224629
     11          1           0       -3.123856    0.417882    0.170078
     12          1           0       -1.746989    1.490884    0.335045
     13          1           0       -1.216113   -0.789023    1.250953
     14          1           0       -1.662181   -1.503520   -0.283642
     15          8           0        0.066946   -0.519839   -0.321174
 ---------------------------------------------------------------------

 SCF Done:  E(RHF) =  -232.142225256     A.U. after   12 cycles

 The electronic state is 1-A.
 Alpha  occ. eigenvalues --  -20.55000 -11.26813 -11.26772 -11.21075 -11.20826
 Alpha  occ. eigenvalues --   -1.37476  -1.04082  -0.98612  -0.86229  -0.81277
 Alpha  occ. eigenvalues --   -0.67250  -0.64735  -0.64379  -0.57557  -0.54863
 Alpha  occ. eigenvalues --   -0.54451  -0.52390  -0.50259  -0.48684  -0.45661
 Alpha  occ. eigenvalues --   -0.40779
 Alpha virt. eigenvalues --    0.23505   0.26140   0.28114   0.29379   0.31566
 Alpha virt. eigenvalues --    0.32146   0.32805   0.33960   0.34491   0.36230
 Alpha virt. eigenvalues --    0.37900   0.41970   0.42773   0.46059   0.69739

 Mulliken charges:
               1
     1  C   -0.487075
     2  C    0.020991
     3  C   -0.501977
     4  C    0.017208
     5  H    0.173089
     6  H    0.154135
     7  H    0.173095
     8  H    0.137703
     9  H    0.135090
    10  H    0.174280
    11  H    0.157016
    12  H    0.160999
    13  H    0.136194
    14  H    0.169493
    15  O   -0.620242
 Sum of Mulliken charges =  -0.00000

 Dipole moment (field-independent basis, Debye):
    X=             -0.4027    Y=              0.6429    Z=              1.0897  Tot=              1.3278
 Quadrupole moment (field-independent basis, Debye-Ang):
   XX=            -31.0706   YY=            -33.5106   ZZ=            -33.4895
   XY=              1.2781   XZ=              0.3871   YZ=             -0.4694

 Normal termination of Gaussian 16 at Mon Sep 15 21:33:17 2025.
