 Gaussian 16, Revision A.03,
 Gaussian 16:  ES64L-G16RevA.03 25-Dec-2016

 -------------------
 # hf/6-31G(d) force
 -------------------

 -----------------
 Force calculation
 -----------------
 Symbolic Z-matrix:
 Charge =  0 Multiplicity = 1

                         Standard orientation:
 ---------------------------------------------------------------------
 Center     Atomic      Atomic             Coordinates (Angstroms)
 Number     Number       Type             X           Y           Z
 ---------------------------------------------------------------------
      1          6           0       -1.285092   -0.209569   -0.000825
      2          6           0        0.020545    0.634029    0.000348
      3          6           0        1.266241   -0.248814   -0.000158
      4          9           0        1.282172   -1.002960   -1.074929
      5          9           0       -2.033659    0.105562   -1.026511
      6          9           0       -1.961039   -0.008846    1.101307
      7          9           0        0.050705    1.405269   -1.070569
      8          9           0        0.048203    1.403247    1.073011
      9          9           0        2.352463    0.485233    0.006342
     10          9           0        1.269393   -1.010788    1.070099
     11          9           0       -1.009367   -1.493815   -0.078327
 ---------------------------------------------------------------------

 SCF Done:  E(RHF) =  -909.118859880     A.U. after   11 cycles

 The electronic state is 1-A.
 Alpha  occ. eigenvalues --  -26.37711 -26.37647 -26.37628 -26.37614 -26.37596
 Alpha  occ. eigenvalues --  -26.37582 -26.37529 -26.37519 -11.54770 -11.54458
 Alpha  occ. eigenvalues --  -11.48094  -1.78967  -1.77688  -1.73601  -1.68365
 Alpha  occ. eigenvalues --   -1.67742  -1.67589  -1.67123  -1.66254  -1.12518
 Alpha  occ. eigenvalues --   -1.02331  -0.95576  -0.90879  -0.89198  -0.87626
 Alpha  occ. eigenvalues --   -0.86550  -0.85629  -0.85297  -0.81568  -0.76423
 Alpha  occ. eigenvalues --   -0.75382  -0.74936  -0.74038  -0.73763  -0.72852
 Alpha  occ. eigenvalues --   -0.71452  -0.70194  -0.70174  -0.68446  -0.68135
 Alpha  occ. eigenvalues --   -0.67766  -0.67215  -0.66848  -0.63508  -0.55921
 Alpha virt. eigenvalues --    0.24341   0.25276   0.35663   0.39765   0.42503
 Alpha virt. eigenvalues --    0.44961   0.47393   0.50930   0.52140   0.56641
 Alpha virt. eigenvalues --    0.64677   0.65037   0.68452   0.68518   0.72778

 Mulliken charges:
               1
     1  C    1.085179
     2  C    0.584930
     3  C    1.098292
     4  F   -0.346711
     5  F   -0.335166
     6  F   -0.334227
     7  F   -0.357476
     8  F   -0.357264
     9  F   -0.342739
    10  F   -0.347824
    11  F   -0.346994
 Sum of Mulliken charges =  -0.00000

 Dipole moment (field-independent basis, Debye):
    X=             -0.0518    Y=              0.0683    Z=             -0.0060  Tot=              0.0859
 Quadrupole moment (field-independent basis, Debye-Ang):
   XX=            -56.9604   YY=            -57.1964   ZZ=            -57.2437
   XY=             -0.2050   XZ=              0.0061   YZ=              0.0060

 Normal termination of Gaussian 16 at Mon Sep 15 21:49:25 2025.
