 Gaussian 16, Revision A.03,
 Gaussian 16:  ES64L-G16RevA.03 25-Dec-2016

 -------------------
 # hf/6-31G(d) force
 -------------------

 -----------------
 Force calculation
 -----------------
 Symbolic Z-matrix:
 Charge =  0 Multiplicity = 1

                         Standard orientation:
 ---------------------------------------------------------------------
 Center     Atomic      Atomic             Coordinates (Angstroms)
 Number     Number       Type             X           Y           Z
 ---------------------------------------------------------------------
      1          6           0       -1.257405   -0.237098    0.000000
      2          6           0        0.000000    0.652021   -0.000000
      3          6           0        1.257405   -0.237099   -0.000000
      4          9           0        1.257166   -1.016858   -1.102032
      5          9           0       -2.030732    0.077127   -1.061002
      6          9           0       -1.952377   -0.033681    1.139357
      7          9           0       -0.000001    1.431444   -1.102271
      8          9           0        0.000001    1.431444    1.102270
      9          9           0        2.359675    0.542324   -0.000476
     10          9           0        1.257643   -1.016185    1.102508
     11          9           0       -0.891374   -1.534165   -0.078353
 ---------------------------------------------------------------------

 SCF Done:  E(RHF) =  -909.103816468     A.U. after   11 cycles

 The electronic state is 1-A.
 Alpha  occ. eigenvalues --  -26.38341 -26.38168 -26.38048 -26.37964 -26.37917
 Alpha  occ. eigenvalues --  -26.37910 -26.37871 -26.37853 -11.56193 -11.56102
 Alpha  occ. eigenvalues --  -11.49513  -1.76722  -1.75110  -1.72004  -1.67384
 Alpha  occ. eigenvalues --   -1.67042  -1.66536  -1.66199  -1.65400  -1.13418
 Alpha  occ. eigenvalues --   -1.02142  -0.94534  -0.89393  -0.88110  -0.86470
 Alpha  occ. eigenvalues --   -0.85112  -0.84141  -0.83890  -0.80406  -0.75870
 Alpha  occ. eigenvalues --   -0.75056  -0.74313  -0.73593  -0.73241  -0.72166
 Alpha  occ. eigenvalues --   -0.70985  -0.70336  -0.70060  -0.68613  -0.68459
 Alpha  occ. eigenvalues --   -0.67666  -0.67365  -0.67059  -0.64196  -0.57011
 Alpha virt. eigenvalues --    0.21611   0.23355   0.32964   0.36039   0.37447
 Alpha virt. eigenvalues --    0.38838   0.43767   0.47451   0.48988   0.52871
 Alpha virt. eigenvalues --    0.63673   0.64513   0.67910   0.67948   0.73008

 Mulliken charges:
               1
     1  C    1.129652
     2  C    0.615493
     3  C    1.133122
     4  F   -0.360995
     5  F   -0.354233
     6  F   -0.353271
     7  F   -0.364336
     8  F   -0.364180
     9  F   -0.358696
    10  F   -0.361648
    11  F   -0.360908
 Sum of Mulliken charges =  -0.00000

 Dipole moment (field-independent basis, Debye):
    X=             -0.0243    Y=              0.0074    Z=             -0.0049  Tot=              0.0258
 Quadrupole moment (field-independent basis, Debye-Ang):
   XX=            -57.3426   YY=            -57.5528   ZZ=            -57.7817
   XY=             -0.0890   XZ=              0.0090   YZ=              0.0087

 Normal termination of Gaussian 16 at Mon Sep 15 21:48:38 2025.
