 Gaussian 16, Revision A.03,
 Gaussian 16:  ES64L-G16RevA.03 25-Dec-2016

 -------------------
 # hf/6-31G(d) force
 -------------------

 -----------------
 Force calculation
 -----------------
 Symbolic Z-matrix:
 Charge =  0 Multiplicity = 1

                         Standard orientation:
 ---------------------------------------------------------------------
 Center     Atomic      Atomic             Coordinates (Angstroms)
 Number     Number       Type             X           Y           Z
 ---------------------------------------------------------------------
      1          6           0       -1.298523   -0.226927    0.000725
      2          6           0        0.001819    0.602143    0.003066
      3          6           0        1.291033   -0.235124    0.003988
      4          9           0        1.503585   -0.733911   -1.188998
      5          9           0       -2.277779    0.475532   -0.516063
      6          9           0       -1.622176   -0.567591    1.224995
      7          9           0        0.025218    1.362868   -1.082964
      8          9           0       -0.000424    1.382658    1.074451
      9          9           0        2.307830    0.523420    0.331003
     10          9           0        1.203833   -1.219041    0.869034
     11          9           0       -1.136305   -1.317330   -0.716645
 ---------------------------------------------------------------------

 SCF Done:  E(RHF) =  -909.123465229     A.U. after   11 cycles

 The electronic state is 1-A.
 Alpha  occ. eigenvalues --  -26.38001 -26.37975 -26.37751 -26.37739 -26.37659
 Alpha  occ. eigenvalues --  -26.37638 -26.37463 -26.37403 -11.54842 -11.54668
 Alpha  occ. eigenvalues --  -11.48044  -1.78894  -1.77819  -1.73200  -1.68303
 Alpha  occ. eigenvalues --   -1.67798  -1.67581  -1.67492  -1.66180  -1.12330
 Alpha  occ. eigenvalues --   -1.02575  -0.95601  -0.90835  -0.88930  -0.87642
 Alpha  occ. eigenvalues --   -0.86583  -0.85617  -0.85487  -0.81414  -0.76267
 Alpha  occ. eigenvalues --   -0.75466  -0.74368  -0.74049  -0.73689  -0.73170
 Alpha  occ. eigenvalues --   -0.71736  -0.70237  -0.70157  -0.68431  -0.68394
 Alpha  occ. eigenvalues --   -0.67873  -0.67632  -0.67267  -0.63230  -0.55979
 Alpha virt. eigenvalues --    0.25049   0.25451   0.36554   0.39085   0.42132
 Alpha virt. eigenvalues --    0.44411   0.46740   0.50217   0.51417   0.55846
 Alpha virt. eigenvalues --    0.64353   0.64891   0.68842   0.69018   0.71454

 Mulliken charges:
               1
     1  C    1.086831
     2  C    0.587752
     3  C    1.086251
     4  F   -0.337971
     5  F   -0.339191
     6  F   -0.335512
     7  F   -0.361279
     8  F   -0.360202
     9  F   -0.340308
    10  F   -0.342450
    11  F   -0.343921
 Sum of Mulliken charges =  -0.00000

 Dipole moment (field-independent basis, Debye):
    X=             -0.0350    Y=             -0.0622    Z=              0.0242  Tot=              0.0753
 Quadrupole moment (field-independent basis, Debye-Ang):
   XX=            -56.8600   YY=            -57.2580   ZZ=            -57.2753
   XY=             -0.0408   XZ=              0.0326   YZ=              0.0079

 Normal termination of Gaussian 16 at Mon Sep 15 21:52:57 2025.
