 Gaussian 16, Revision A.03,
 Gaussian 16:  ES64L-G16RevA.03 25-Dec-2016

 -------------------
 # hf/6-31G(d) force
 -------------------

 -----------------
 Force calculation
 -----------------
 Symbolic Z-matrix:
 Charge =  0 Multiplicity = 1

                         Standard orientation:
 ---------------------------------------------------------------------
 Center     Atomic      Atomic             Coordinates (Angstroms)
 Number     Number       Type             X           Y           Z
 ---------------------------------------------------------------------
      1          6           0        1.317331    0.216339    0.000258
      2          6           0       -0.006258   -0.588327    0.000373
      3          6           0       -1.292207    0.247070    0.004700
      4          9           0       -1.380033    0.974335   -1.087145
      5          9           0        2.073251   -0.164316   -0.994580
      6          9           0        1.964527    0.027326    1.120816
      7          9           0       -0.047443   -1.350340   -1.080424
      8          9           0       -0.034635   -1.368705    1.073401
      9          9           0       -2.309705   -0.581424    0.045762
     10          9           0       -1.346969    1.044565    1.045870
     11          9           0        1.068430    1.501837   -0.127254
 ---------------------------------------------------------------------

 SCF Done:  E(RHF) =  -909.119906846     A.U. after   11 cycles

 The electronic state is 1-A.
 Alpha  occ. eigenvalues --  -26.37941 -26.37823 -26.37777 -26.37724 -26.37606
 Alpha  occ. eigenvalues --  -26.37481 -26.37356 -26.37253 -11.54915 -11.54567
 Alpha  occ. eigenvalues --  -11.48031  -1.78947  -1.77769  -1.73191  -1.68350
 Alpha  occ. eigenvalues --   -1.67849  -1.67562  -1.67293  -1.66037  -1.12179
 Alpha  occ. eigenvalues --   -1.02593  -0.95517  -0.91066  -0.88811  -0.87623
 Alpha  occ. eigenvalues --   -0.86503  -0.85822  -0.85282  -0.81327  -0.76252
 Alpha  occ. eigenvalues --   -0.75395  -0.74756  -0.74030  -0.73893  -0.72675
 Alpha  occ. eigenvalues --   -0.71455  -0.70177  -0.70100  -0.68348  -0.68159
 Alpha  occ. eigenvalues --   -0.68058  -0.67251  -0.66988  -0.63195  -0.56145
 Alpha virt. eigenvalues --    0.24107   0.25220   0.35819   0.39622   0.42291
 Alpha virt. eigenvalues --    0.44464   0.46885   0.51117   0.52514   0.56349
 Alpha virt. eigenvalues --    0.64569   0.65065   0.68260   0.69086   0.71238

 Mulliken charges:
               1
     1  C    1.097965
     2  C    0.575004
     3  C    1.100555
     4  F   -0.345690
     5  F   -0.334261
     6  F   -0.333956
     7  F   -0.360908
     8  F   -0.363609
     9  F   -0.345547
    10  F   -0.342935
    11  F   -0.346617
 Sum of Mulliken charges =  -0.00000

 Dipole moment (field-independent basis, Debye):
    X=              0.1495    Y=              0.0862    Z=              0.0098  Tot=              0.1729
 Quadrupole moment (field-independent basis, Debye-Ang):
   XX=            -56.9330   YY=            -57.3137   ZZ=            -57.2407
   XY=             -0.1810   XZ=             -0.0508   YZ=              0.0326

 Normal termination of Gaussian 16 at Mon Sep 15 21:50:59 2025.
