 Gaussian 16, Revision A.03,
 Gaussian 16:  ES64L-G16RevA.03 25-Dec-2016

 -------------------
 # hf/6-31G(d) force
 -------------------

 -----------------
 Force calculation
 -----------------
 Symbolic Z-matrix:
 Charge =  0 Multiplicity = 1

                         Standard orientation:
 ---------------------------------------------------------------------
 Center     Atomic      Atomic             Coordinates (Angstroms)
 Number     Number       Type             X           Y           Z
 ---------------------------------------------------------------------
      1          6           0       -1.301569   -0.221611   -0.000750
      2          6           0        0.028715    0.615966    0.002359
      3          6           0        1.279267   -0.236139   -0.000072
      4          9           0        1.314403   -1.000760   -1.083050
      5          9           0       -2.048462    0.129793   -1.025425
      6          9           0       -1.973630    0.004990    1.104325
      7          9           0        0.058659    1.387735   -1.067916
      8          9           0        0.057012    1.379941    1.074093
      9          9           0        2.344355    0.504173    0.013399
     10          9           0        1.295923   -1.020623    1.067564
     11          9           0       -1.052535   -1.490725   -0.084015
 ---------------------------------------------------------------------

 SCF Done:  E(RHF) =  -909.118596470     A.U. after   11 cycles

 The electronic state is 1-A.
 Alpha  occ. eigenvalues --  -26.38332 -26.38122 -26.37548 -26.37443 -26.37422
 Alpha  occ. eigenvalues --  -26.37413 -26.37327 -26.37303 -11.54870 -11.54444
 Alpha  occ. eigenvalues --  -11.48077  -1.79034  -1.77770  -1.73708  -1.68265
 Alpha  occ. eigenvalues --   -1.68064  -1.67615  -1.66943  -1.66067  -1.12367
 Alpha  occ. eigenvalues --   -1.02421  -0.95604  -0.90962  -0.89190  -0.87547
 Alpha  occ. eigenvalues --   -0.86434  -0.85841  -0.85270  -0.81645  -0.76804
 Alpha  occ. eigenvalues --   -0.75242  -0.74800  -0.73963  -0.73751  -0.72840
 Alpha  occ. eigenvalues --   -0.71443  -0.70347  -0.69963  -0.68257  -0.68126
 Alpha  occ. eigenvalues --   -0.68010  -0.67116  -0.66967  -0.63358  -0.55958
 Alpha virt. eigenvalues --    0.24277   0.25493   0.35691   0.38932   0.42563
 Alpha virt. eigenvalues --    0.44793   0.46851   0.51645   0.52562   0.56172
 Alpha virt. eigenvalues --    0.64653   0.65162   0.68150   0.68759   0.72519

 Mulliken charges:
               1
     1  C    1.084299
     2  C    0.579726
     3  C    1.101669
     4  F   -0.357337
     5  F   -0.342472
     6  F   -0.339185
     7  F   -0.358173
     8  F   -0.355405
     9  F   -0.329570
    10  F   -0.356789
    11  F   -0.326763
 Sum of Mulliken charges =  -0.00000

 Dipole moment (field-independent basis, Debye):
    X=             -0.0024    Y=              0.0378    Z=              0.0189  Tot=              0.0423
 Quadrupole moment (field-independent basis, Debye-Ang):
   XX=            -56.9507   YY=            -57.1186   ZZ=            -57.3767
   XY=              0.2013   XZ=              0.0073   YZ=              0.0282

 Normal termination of Gaussian 16 at Mon Sep 15 21:49:49 2025.
