 Gaussian 16, Revision A.03,
 Gaussian 16:  ES64L-G16RevA.03 25-Dec-2016

 -------------------
 # hf/6-31G(d) force
 -------------------

 -----------------
 Force calculation
 -----------------
 Symbolic Z-matrix:
 Charge =  0 Multiplicity = 1

                         Standard orientation:
 ---------------------------------------------------------------------
 Center     Atomic      Atomic             Coordinates (Angstroms)
 Number     Number       Type             X           Y           Z
 ---------------------------------------------------------------------
      1          6           0        2.328905    0.145844   -0.198906
      2          6           0        0.952874    0.253513    0.429168
      3          6           0       -2.095014    0.597578   -0.152442
      4          6           0       -1.239817   -0.621307    0.170183
      5          1           0        2.658893   -0.886732   -0.209059
      6          1           0        3.050075    0.735249    0.359189
      7          1           0        2.306462    0.505486   -1.221458
      8          1           0        0.633590    1.293124    0.451688
      9          1           0        0.977988   -0.100646    1.459399
     10          1           0       -2.100313    0.778467   -1.221925
     11          1           0       -3.118289    0.432092    0.171983
     12          1           0       -1.732325    1.492575    0.341725
     13          1           0       -1.224360   -0.799761    1.244571
     14          1           0       -1.668411   -1.498946   -0.297819
     15          8           0        0.066876   -0.525585   -0.320789
 ---------------------------------------------------------------------

 SCF Done:  E(RHF) =  -232.142233004     A.U. after   12 cycles

 The electronic state is 1-A.
 Alpha  occ. eigenvalues --  -20.55005 -11.26824 -11.26773 -11.21087 -11.20836
 Alpha  occ. eigenvalues --   -1.37471  -1.04068  -0.98613  -0.86234  -0.81261
 Alpha  occ. eigenvalues --   -0.67249  -0.64711  -0.64390  -0.57574  -0.54860
 Alpha  occ. eigenvalues --   -0.54430  -0.52382  -0.50251  -0.48709  -0.45647
 Alpha  occ. eigenvalues --   -0.40784
 Alpha virt. eigenvalues --    0.23509   0.26142   0.28104   0.29364   0.31562
 Alpha virt. eigenvalues --    0.32150   0.32778   0.33970   0.34489   0.36227
 Alpha virt. eigenvalues --    0.37969   0.41954   0.42786   0.46038   0.69796

 Mulliken charges:
               1
     1  C   -0.486991
     2  C    0.020899
     3  C   -0.502194
     4  C    0.017169
     5  H    0.172956
     6  H    0.154124
     7  H    0.173151
     8  H    0.137560
     9  H    0.135206
    10  H    0.174140
    11  H    0.157111
    12  H    0.161158
    13  H    0.136202
    14  H    0.169654
    15  O   -0.620145
 Sum of Mulliken charges =  -0.00000

 Dipole moment (field-independent basis, Debye):
    X=             -0.4078    Y=              0.6476    Z=              1.0871  Tot=              1.3295
 Quadrupole moment (field-independent basis, Debye-Ang):
   XX=            -31.0630   YY=            -33.5272   ZZ=            -33.4893
   XY=              1.2744   XZ=              0.4012   YZ=             -0.4717

 Normal termination of Gaussian 16 at Wed Sep 10 14:00:48 2025.
