 Gaussian 16, Revision A.03,
 Gaussian 16:  ES64L-G16RevA.03 25-Dec-2016

 -------------------
 # hf/6-31G(d) force
 -------------------

 -----------------
 Force calculation
 -----------------
 Symbolic Z-matrix:
 Charge =  0 Multiplicity = 1

                         Standard orientation:
 ---------------------------------------------------------------------
 Center     Atomic      Atomic             Coordinates (Angstroms)
 Number     Number       Type             X           Y           Z
 ---------------------------------------------------------------------
      1          6           0        2.330015    0.142232   -0.197120
      2          6           0        0.952074    0.259775    0.424836
      3          6           0       -2.096136    0.595375   -0.153845
      4          6           0       -1.239167   -0.621088    0.172937
      5          1           0        2.658117   -0.890854   -0.193657
      6          1           0        3.050364    0.737142    0.356024
      7          1           0        2.311778    0.489688   -1.223845
      8          1           0        0.634819    1.300155    0.434272
      9          1           0        0.972892   -0.082393    1.459145
     10          1           0       -2.100820    0.772863   -1.223870
     11          1           0       -3.119406    0.428970    0.170007
     12          1           0       -1.735556    1.492540    0.337936
     13          1           0       -1.222690   -0.795137    1.248013
     14          1           0       -1.667109   -1.501065   -0.291267
     15          8           0        0.067112   -0.526209   -0.319200
 ---------------------------------------------------------------------

 SCF Done:  E(RHF) =  -232.142232612     A.U. after   12 cycles

 The electronic state is 1-A.
 Alpha  occ. eigenvalues --  -20.55006 -11.26823 -11.26771 -11.21087 -11.20831
 Alpha  occ. eigenvalues --   -1.37470  -1.04070  -0.98617  -0.86241  -0.81256
 Alpha  occ. eigenvalues --   -0.67251  -0.64733  -0.64368  -0.57587  -0.54852
 Alpha  occ. eigenvalues --   -0.54431  -0.52384  -0.50259  -0.48703  -0.45647
 Alpha  occ. eigenvalues --   -0.40786
 Alpha virt. eigenvalues --    0.23509   0.26143   0.28110   0.29370   0.31551
 Alpha virt. eigenvalues --    0.32150   0.32796   0.33973   0.34490   0.36231
 Alpha virt. eigenvalues --    0.37919   0.41986   0.42766   0.46046   0.69764

 Mulliken charges:
               1
     1  C   -0.486989
     2  C    0.020897
     3  C   -0.502356
     4  C    0.017227
     5  H    0.172920
     6  H    0.154125
     7  H    0.173200
     8  H    0.137657
     9  H    0.135126
    10  H    0.174148
    11  H    0.157175
    12  H    0.161157
    13  H    0.136207
    14  H    0.169660
    15  O   -0.620154
 Sum of Mulliken charges =  -0.00000

 Dipole moment (field-independent basis, Debye):
    X=             -0.4084    Y=              0.6538    Z=              1.0831  Tot=              1.3295
 Quadrupole moment (field-independent basis, Debye-Ang):
   XX=            -31.0642   YY=            -33.5278   ZZ=            -33.4864
   XY=              1.2821   XZ=              0.3928   YZ=             -0.4717

 Normal termination of Gaussian 16 at Wed Sep 10 14:00:41 2025.
