 Gaussian 16, Revision A.03,
 Gaussian 16:  ES64L-G16RevA.03 25-Dec-2016

 -------------------
 # hf/6-31G(d) force
 -------------------

 -----------------
 Force calculation
 -----------------
 Symbolic Z-matrix:
 Charge =  0 Multiplicity = 1

                         Standard orientation:
 ---------------------------------------------------------------------
 Center     Atomic      Atomic             Coordinates (Angstroms)
 Number     Number       Type             X           Y           Z
 ---------------------------------------------------------------------
      1          6           0        2.304374    0.242797   -0.211031
      2          6           0        0.979222    0.067987    0.507020
      3          6           0       -2.082882    0.638881   -0.079064
      4          6           0       -1.245735   -0.622278    0.091020
      5          1           0        2.653879   -0.709589   -0.595069
      6          1           0        3.055977    0.640072    0.464216
      7          1           0        2.194226    0.924387   -1.047512
      8          1           0        0.628375    1.022549    0.896379
      9          1           0        1.093831   -0.604321    1.357398
     10          1           0       -2.103792    0.925007   -1.126279
     11          1           0       -3.105656    0.460401    0.238344
     12          1           0       -1.687466    1.471375    0.494701
     13          1           0       -1.219867   -0.940771    1.132603
     14          1           0       -1.692499   -1.427572   -0.478389
     15          8           0        0.056639   -0.465733   -0.398008
 ---------------------------------------------------------------------

 SCF Done:  E(RHF) =  -232.142067043     A.U. after   11 cycles

 The electronic state is 1-A.
 Alpha  occ. eigenvalues --  -20.54971 -11.26832 -11.26807 -11.21058 -11.20879
 Alpha  occ. eigenvalues --   -1.37477  -1.04036  -0.98527  -0.85986  -0.81558
 Alpha  occ. eigenvalues --   -0.67178  -0.64892  -0.64188  -0.57301  -0.55142
 Alpha  occ. eigenvalues --   -0.54310  -0.52310  -0.50102  -0.48838  -0.45800
 Alpha  occ. eigenvalues --   -0.40696
 Alpha virt. eigenvalues --    0.23476   0.26162   0.28012   0.29378   0.31709
 Alpha virt. eigenvalues --    0.32224   0.32530   0.33881   0.34468   0.36114
 Alpha virt. eigenvalues --    0.38470   0.41230   0.43225   0.45879   0.70779

 Mulliken charges:
               1
     1  C   -0.487685
     2  C    0.020496
     3  C   -0.496387
     4  C    0.013942
     5  H    0.174088
     6  H    0.154482
     7  H    0.172431
     8  H    0.135460
     9  H    0.137452
    10  H    0.173970
    11  H    0.155438
    12  H    0.160965
    13  H    0.136889
    14  H    0.168334
    15  O   -0.619874
 Sum of Mulliken charges =  -0.00000

 Dipole moment (field-independent basis, Debye):
    X=             -0.3594    Y=              0.3805    Z=              1.2265  Tot=              1.3335
 Quadrupole moment (field-independent basis, Debye-Ang):
   XX=            -30.9874   YY=            -33.4024   ZZ=            -33.6515
   XY=              1.0469   XZ=              0.6126   YZ=             -0.4655

 Normal termination of Gaussian 16 at Mon Sep 15 21:32:33 2025.
