 Gaussian 16, Revision A.03,
 Gaussian 16:  ES64L-G16RevA.03 25-Dec-2016

 -------------------
 # hf/6-31G(d) force
 -------------------

 -----------------
 Force calculation
 -----------------
 Symbolic Z-matrix:
 Charge =  0 Multiplicity = 1

                         Standard orientation:
 ---------------------------------------------------------------------
 Center     Atomic      Atomic             Coordinates (Angstroms)
 Number     Number       Type             X           Y           Z
 ---------------------------------------------------------------------
      1          6           0       -1.299111   -0.231638   -0.001185
      2          6           0        0.000331    0.580188   -0.001405
      3          6           0        1.298875   -0.232190    0.000577
      4          9           0        1.394419   -0.951986   -1.092018
      5          9           0       -2.314839    0.595284   -0.071551
      6          9           0       -1.399798   -0.936429    1.100795
      7          9           0        0.004822    1.348734   -1.082795
      8          9           0       -0.002471    1.347065    1.080749
      9          9           0        2.315520    0.593717    0.056672
     10          9           0        1.338398   -1.029731    1.041615
     11          9           0       -1.336116   -1.044226   -1.032125
 ---------------------------------------------------------------------

 SCF Done:  E(RHF) =  -909.125474357     A.U. after   11 cycles

 The electronic state is 1-A.
 Alpha  occ. eigenvalues --  -26.37929 -26.37928 -26.37860 -26.37856 -26.37723
 Alpha  occ. eigenvalues --  -26.37723 -26.37492 -26.37490 -11.54755 -11.54731
 Alpha  occ. eigenvalues --  -11.47920  -1.78908  -1.77855  -1.73176  -1.68389
 Alpha  occ. eigenvalues --   -1.67731  -1.67555  -1.67540  -1.66399  -1.12515
 Alpha  occ. eigenvalues --   -1.02796  -0.95723  -0.90802  -0.88818  -0.87805
 Alpha  occ. eigenvalues --   -0.86526  -0.85661  -0.85502  -0.81561  -0.76138
 Alpha  occ. eigenvalues --   -0.75287  -0.74797  -0.73645  -0.73425  -0.73111
 Alpha  occ. eigenvalues --   -0.72328  -0.70297  -0.70168  -0.68548  -0.68537
 Alpha  occ. eigenvalues --   -0.68395  -0.67435  -0.67268  -0.63286  -0.56011
 Alpha virt. eigenvalues --    0.25262   0.26036   0.37990   0.38938   0.41900
 Alpha virt. eigenvalues --    0.44311   0.45779   0.49074   0.51629   0.55343
 Alpha virt. eigenvalues --    0.64083   0.64911   0.69181   0.69307   0.70402

 Mulliken charges:
               1
     1  C    1.082282
     2  C    0.605349
     3  C    1.081725
     4  F   -0.338407
     5  F   -0.342688
     6  F   -0.338323
     7  F   -0.364261
     8  F   -0.364123
     9  F   -0.342375
    10  F   -0.339291
    11  F   -0.339888
 Sum of Mulliken charges =  -0.00000

 Dipole moment (field-independent basis, Debye):
    X=              0.0014    Y=             -0.1353    Z=             -0.0031  Tot=              0.1353
 Quadrupole moment (field-independent basis, Debye-Ang):
   XX=            -56.8307   YY=            -57.2318   ZZ=            -57.2922
   XY=             -0.0022   XZ=              0.0141   YZ=             -0.0022

 Normal termination of Gaussian 16 at Mon Sep 15 21:55:28 2025.
