 Gaussian 16, Revision A.03,
 Gaussian 16:  ES64L-G16RevA.03 25-Dec-2016

 -------------------
 # hf/6-31G(d) force
 -------------------

 -----------------
 Force calculation
 -----------------
 Symbolic Z-matrix:
 Charge =  0 Multiplicity = 1

                         Standard orientation:
 ---------------------------------------------------------------------
 Center     Atomic      Atomic             Coordinates (Angstroms)
 Number     Number       Type             X           Y           Z
 ---------------------------------------------------------------------
      1          6           0        1.289165   -0.234317    0.001683
      2          6           0        0.002390    0.598841    0.002854
      3          6           0       -1.292992   -0.227571    0.000294
      4          9           0       -1.555167   -0.664218    1.207377
      5          9           0        2.310105    0.540688    0.270486
      6          9           0        1.470259   -0.781988   -1.174377
      7          9           0        0.000986    1.371882    1.079407
      8          9           0        0.016437    1.364226   -1.079279
      9          9           0       -2.288343    0.518173   -0.409218
     10          9           0       -1.175253   -1.257954   -0.806529
     11          9           0        1.221933   -1.182110    0.908913
 ---------------------------------------------------------------------

 SCF Done:  E(RHF) =  -909.124348671     A.U. after   11 cycles

 The electronic state is 1-A.
 Alpha  occ. eigenvalues --  -26.37989 -26.37963 -26.37739 -26.37730 -26.37716
 Alpha  occ. eigenvalues --  -26.37695 -26.37463 -26.37434 -11.54725 -11.54656
 Alpha  occ. eigenvalues --  -11.47913  -1.78960  -1.77876  -1.73217  -1.68358
 Alpha  occ. eigenvalues --   -1.67818  -1.67628  -1.67528  -1.66263  -1.12489
 Alpha  occ. eigenvalues --   -1.02656  -0.95656  -0.90859  -0.88963  -0.87736
 Alpha  occ. eigenvalues --   -0.86594  -0.85613  -0.85571  -0.81476  -0.76231
 Alpha  occ. eigenvalues --   -0.75489  -0.74282  -0.74182  -0.73572  -0.73186
 Alpha  occ. eigenvalues --   -0.71879  -0.70265  -0.70206  -0.68485  -0.68449
 Alpha  occ. eigenvalues --   -0.68044  -0.67524  -0.67314  -0.63268  -0.55962
 Alpha virt. eigenvalues --    0.25450   0.25633   0.37111   0.39085   0.42062
 Alpha virt. eigenvalues --    0.44423   0.46910   0.49847   0.51623   0.55818
 Alpha virt. eigenvalues --    0.64307   0.64899   0.69014   0.69135   0.71292

 Mulliken charges:
               1
     1  C    1.083575
     2  C    0.593683
     3  C    1.082422
     4  F   -0.335532
     5  F   -0.340507
     6  F   -0.337033
     7  F   -0.361279
     8  F   -0.361905
     9  F   -0.339152
    10  F   -0.342133
    11  F   -0.342138
 Sum of Mulliken charges =  -0.00000

 Dipole moment (field-independent basis, Debye):
    X=             -0.0132    Y=             -0.0700    Z=              0.0105  Tot=              0.0720
 Quadrupole moment (field-independent basis, Debye-Ang):
   XX=            -56.7769   YY=            -57.2431   ZZ=            -57.2645
   XY=             -0.0338   XZ=              0.0256   YZ=              0.0088

 Normal termination of Gaussian 16 at Mon Sep 15 21:53:45 2025.
