 Gaussian 16, Revision A.03,
 Gaussian 16:  ES64L-G16RevA.03 25-Dec-2016

 -------------------
 # hf/6-31G(d) force
 -------------------

 -----------------
 Force calculation
 -----------------
 Symbolic Z-matrix:
 Charge =  0 Multiplicity = 1

                         Standard orientation:
 ---------------------------------------------------------------------
 Center     Atomic      Atomic             Coordinates (Angstroms)
 Number     Number       Type             X           Y           Z
 ---------------------------------------------------------------------
      1          6           0       -1.278803   -0.213494   -0.000752
      2          6           0        0.011055    0.653608    0.000469
      3          6           0        1.270144   -0.242917   -0.000157
      4          9           0        1.270340   -1.005392   -1.080221
      5          9           0       -2.027555    0.091309   -1.034343
      6          9           0       -1.953926   -0.020871    1.108658
      7          9           0        0.036169    1.412523   -1.072256
      8          9           0        0.033854    1.411674    1.074305
      9          9           0        2.349290    0.491875    0.003244
     10          9           0        1.261431   -1.009682    1.078395
     11          9           0       -0.971199   -1.502899   -0.077489
 ---------------------------------------------------------------------

 SCF Done:  E(RHF) =  -909.117403188     A.U. after   11 cycles

 The electronic state is 1-A.
 Alpha  occ. eigenvalues --  -26.37956 -26.37689 -26.37680 -26.37674 -26.37639
 Alpha  occ. eigenvalues --  -26.37489 -26.37431 -26.37346 -11.54775 -11.54537
 Alpha  occ. eigenvalues --  -11.48132  -1.78540  -1.77167  -1.73818  -1.68383
 Alpha  occ. eigenvalues --   -1.67759  -1.67189  -1.66790  -1.66378  -1.12129
 Alpha  occ. eigenvalues --   -1.02065  -0.95393  -0.90538  -0.89150  -0.87403
 Alpha  occ. eigenvalues --   -0.86237  -0.85317  -0.85143  -0.81786  -0.76426
 Alpha  occ. eigenvalues --   -0.75358  -0.74888  -0.73842  -0.73601  -0.72875
 Alpha  occ. eigenvalues --   -0.71437  -0.70263  -0.70206  -0.68478  -0.68174
 Alpha  occ. eigenvalues --   -0.67590  -0.67315  -0.66741  -0.63280  -0.55417
 Alpha virt. eigenvalues --    0.24772   0.25399   0.35424   0.39452   0.41603
 Alpha virt. eigenvalues --    0.43806   0.47015   0.50522   0.51404   0.56657
 Alpha virt. eigenvalues --    0.64506   0.64916   0.68236   0.68679   0.73160

 Mulliken charges:
               1
     1  C    1.092162
     2  C    0.586866
     3  C    1.099464
     4  F   -0.352812
     5  F   -0.337175
     6  F   -0.336801
     7  F   -0.352707
     8  F   -0.352545
     9  F   -0.336364
    10  F   -0.354434
    11  F   -0.355653
 Sum of Mulliken charges =  -0.00000

 Dipole moment (field-independent basis, Debye):
    X=             -0.0067    Y=              0.2251    Z=             -0.0081  Tot=              0.2254
 Quadrupole moment (field-independent basis, Debye-Ang):
   XX=            -56.7331   YY=            -57.2204   ZZ=            -57.3243
   XY=             -0.1496   XZ=              0.0068   YZ=              0.0061

 Normal termination of Gaussian 16 at Mon Sep 15 21:49:02 2025.
