 Gaussian 16, Revision A.03,
 Gaussian 16:  ES64L-G16RevA.03 25-Dec-2016

 -------------------
 # hf/6-31G(d) force
 -------------------

 -----------------
 Force calculation
 -----------------
 Symbolic Z-matrix:
 Charge =  0 Multiplicity = 1

                         Standard orientation:
 ---------------------------------------------------------------------
 Center     Atomic      Atomic             Coordinates (Angstroms)
 Number     Number       Type             X           Y           Z
 ---------------------------------------------------------------------
      1          6           0        2.332059    0.136172   -0.194823
      2          6           0        0.952058    0.269592    0.418881
      3          6           0       -2.100426    0.589786   -0.156196
      4          6           0       -1.237208   -0.620108    0.177530
      5          1           0        2.651168   -0.899837   -0.181716
      6          1           0        3.054639    0.729169    0.357595
      7          1           0        2.322932    0.474165   -1.224640
      8          1           0        0.638209    1.310995    0.412263
      9          1           0        0.967117   -0.058118    1.457837
     10          1           0       -2.103319    0.763194   -1.226685
     11          1           0       -3.123020    0.418346    0.167131
     12          1           0       -1.746717    1.491032    0.332848
     13          1           0       -1.217759   -0.786777    1.253638
     14          1           0       -1.662362   -1.504812   -0.279869
     15          8           0        0.067526   -0.523752   -0.317594
 ---------------------------------------------------------------------

 SCF Done:  E(RHF) =  -232.142227243     A.U. after   12 cycles

 The electronic state is 1-A.
 Alpha  occ. eigenvalues --  -20.54999 -11.26815 -11.26769 -11.21079 -11.20828
 Alpha  occ. eigenvalues --   -1.37478  -1.04081  -0.98616  -0.86247  -0.81256
 Alpha  occ. eigenvalues --   -0.67257  -0.64763  -0.64344  -0.57584  -0.54840
 Alpha  occ. eigenvalues --   -0.54450  -0.52395  -0.50266  -0.48682  -0.45649
 Alpha  occ. eigenvalues --   -0.40783
 Alpha virt. eigenvalues --    0.23506   0.26144   0.28123   0.29382   0.31547
 Alpha virt. eigenvalues --    0.32145   0.32824   0.33962   0.34480   0.36239
 Alpha virt. eigenvalues --    0.37845   0.42019   0.42743   0.46066   0.69711

 Mulliken charges:
               1
     1  C   -0.487048
     2  C    0.021030
     3  C   -0.502436
     4  C    0.017365
     5  H    0.172962
     6  H    0.154102
     7  H    0.173147
     8  H    0.137859
     9  H    0.134976
    10  H    0.174274
    11  H    0.157165
    12  H    0.161029
    13  H    0.136185
    14  H    0.169571
    15  O   -0.620181
 Sum of Mulliken charges =  -0.00000

 Dipole moment (field-independent basis, Debye):
    X=             -0.4069    Y=              0.6565    Z=              1.0800  Tot=              1.3277
 Quadrupole moment (field-independent basis, Debye-Ang):
   XX=            -31.0735   YY=            -33.5210   ZZ=            -33.4812
   XY=              1.2870   XZ=              0.3772   YZ=             -0.4689

 Normal termination of Gaussian 16 at Mon Sep 15 21:33:20 2025.
