 Gaussian 16, Revision A.03,
 Gaussian 16:  ES64L-G16RevA.03 25-Dec-2016

 -------------------
 # hf/6-31G(d) force
 -------------------

 -----------------
 Force calculation
 -----------------
 Symbolic Z-matrix:
 Charge =  0 Multiplicity = 1

                         Standard orientation:
 ---------------------------------------------------------------------
 Center     Atomic      Atomic             Coordinates (Angstroms)
 Number     Number       Type             X           Y           Z
 ---------------------------------------------------------------------
      1          6           0       -1.311089   -0.210355   -0.000249
      2          6           0        0.021818    0.602625    0.001158
      3          6           0        1.291257   -0.254549    0.001471
      4          9           0        1.349488   -0.970131   -1.096708
      5          9           0       -2.081536    0.187734   -0.983202
      6          9           0       -1.948299   -0.037584    1.131931
      7          9           0        0.062415    1.372549   -1.075445
      8          9           0        0.056505    1.373559    1.075473
      9          9           0        2.345283    0.522050    0.051594
     10          9           0        1.297341   -1.043759    1.046793
     11          9           0       -1.082520   -1.496231   -0.152023
 ---------------------------------------------------------------------

 SCF Done:  E(RHF) =  -909.120105497     A.U. after   11 cycles

 The electronic state is 1-A.
 Alpha  occ. eigenvalues --  -26.37924 -26.37888 -26.37721 -26.37595 -26.37590
 Alpha  occ. eigenvalues --  -26.37573 -26.37363 -26.37313 -11.54940 -11.54522
 Alpha  occ. eigenvalues --  -11.48073  -1.78897  -1.77797  -1.73286  -1.68318
 Alpha  occ. eigenvalues --   -1.67764  -1.67645  -1.67327  -1.66067  -1.12056
 Alpha  occ. eigenvalues --   -1.02428  -0.95546  -0.90910  -0.88896  -0.87615
 Alpha  occ. eigenvalues --   -0.86557  -0.85710  -0.85329  -0.81421  -0.76311
 Alpha  occ. eigenvalues --   -0.75292  -0.74811  -0.74092  -0.73864  -0.72775
 Alpha  occ. eigenvalues --   -0.71423  -0.70185  -0.70136  -0.68402  -0.68144
 Alpha  occ. eigenvalues --   -0.68045  -0.67163  -0.67041  -0.63182  -0.55917
 Alpha virt. eigenvalues --    0.24406   0.25079   0.35698   0.39827   0.42235
 Alpha virt. eigenvalues --    0.44588   0.46604   0.51104   0.52083   0.56213
 Alpha virt. eigenvalues --    0.64589   0.64974   0.68383   0.68894   0.71552

 Mulliken charges:
               1
     1  C    1.090245
     2  C    0.579702
     3  C    1.097005
     4  F   -0.344507
     5  F   -0.337385
     6  F   -0.335356
     7  F   -0.361107
     8  F   -0.359717
     9  F   -0.342510
    10  F   -0.342852
    11  F   -0.343517
 Sum of Mulliken charges =  -0.00000

 Dipole moment (field-independent basis, Debye):
    X=             -0.0322    Y=             -0.0695    Z=              0.0180  Tot=              0.0787
 Quadrupole moment (field-independent basis, Debye-Ang):
   XX=            -56.9831   YY=            -57.2290   ZZ=            -57.2771
   XY=             -0.2207   XZ=              0.0251   YZ=              0.0025

 Normal termination of Gaussian 16 at Mon Sep 15 21:51:46 2025.
