 Gaussian 16, Revision A.03,
 Gaussian 16:  ES64L-G16RevA.03 25-Dec-2016

 -------------------
 # hf/6-31G(d) force
 -------------------

 -----------------
 Force calculation
 -----------------
 Symbolic Z-matrix:
 Charge =  0 Multiplicity = 1

                         Standard orientation:
 ---------------------------------------------------------------------
 Center     Atomic      Atomic             Coordinates (Angstroms)
 Number     Number       Type             X           Y           Z
 ---------------------------------------------------------------------
      1          6           0        2.329337    0.144507   -0.198249
      2          6           0        0.952584    0.255827    0.427572
      3          6           0       -2.095459    0.596739   -0.152945
      4          6           0       -1.239546   -0.621193    0.171236
      5          1           0        2.658512   -0.888274   -0.203433
      6          1           0        3.050240    0.735758    0.358147
      7          1           0        2.308489    0.499805   -1.222307
      8          1           0        0.634080    1.295770    0.445272
      9          1           0        0.976058   -0.094033    1.459291
     10          1           0       -2.100665    0.776228   -1.222666
     11          1           0       -3.118722    0.430783    0.171201
     12          1           0       -1.733614    1.492607    0.340290
     13          1           0       -1.223625   -0.797927    1.245894
     14          1           0       -1.667936   -1.499731   -0.295235
     15          8           0        0.066961   -0.525783   -0.320267
 ---------------------------------------------------------------------

 SCF Done:  E(RHF) =  -232.142232869     A.U. after   12 cycles

 The electronic state is 1-A.
 Alpha  occ. eigenvalues --  -20.55006 -11.26823 -11.26772 -11.21087 -11.20833
 Alpha  occ. eigenvalues --   -1.37470  -1.04069  -0.98615  -0.86236  -0.81260
 Alpha  occ. eigenvalues --   -0.67249  -0.64719  -0.64382  -0.57578  -0.54858
 Alpha  occ. eigenvalues --   -0.54430  -0.52382  -0.50254  -0.48707  -0.45647
 Alpha  occ. eigenvalues --   -0.40785
 Alpha virt. eigenvalues --    0.23509   0.26142   0.28106   0.29366   0.31558
 Alpha virt. eigenvalues --    0.32150   0.32786   0.33971   0.34490   0.36229
 Alpha virt. eigenvalues --    0.37950   0.41966   0.42779   0.46040   0.69784

 Mulliken charges:
               1
     1  C   -0.486987
     2  C    0.020886
     3  C   -0.502247
     4  C    0.017187
     5  H    0.172950
     6  H    0.154127
     7  H    0.173169
     8  H    0.137595
     9  H    0.135181
    10  H    0.174138
    11  H    0.157132
    12  H    0.161160
    13  H    0.136201
    14  H    0.169656
    15  O   -0.620150
 Sum of Mulliken charges =  -0.00000

 Dipole moment (field-independent basis, Debye):
    X=             -0.4079    Y=              0.6498    Z=              1.0858  Tot=              1.3295
 Quadrupole moment (field-independent basis, Debye-Ang):
   XX=            -31.0631   YY=            -33.5273   ZZ=            -33.4884
   XY=              1.2774   XZ=              0.3985   YZ=             -0.4718

 Normal termination of Gaussian 16 at Wed Sep 10 14:00:44 2025.
