 Gaussian 16, Revision A.03,
 Gaussian 16:  ES64L-G16RevA.03 25-Dec-2016

 -------------------
 # hf/6-31G(d) force
 -------------------

 -----------------
 Force calculation
 -----------------
 Symbolic Z-matrix:
 Charge =  0 Multiplicity = 1

                         Standard orientation:
 ---------------------------------------------------------------------
 Center     Atomic      Atomic             Coordinates (Angstroms)
 Number     Number       Type             X           Y           Z
 ---------------------------------------------------------------------
      1          6           0        2.328214    0.157455   -0.206075
      2          6           0        0.961814    0.226408    0.448061
      3          6           0       -2.102087    0.598321   -0.144834
      4          6           0       -1.239628   -0.619853    0.160374
      5          1           0        2.649027   -0.873817   -0.300603
      6          1           0        3.062291    0.696115    0.385252
      7          1           0        2.295706    0.595631   -1.197319
      8          1           0        0.642989    1.262694    0.537579
      9          1           0        1.002182   -0.188810    1.454615
     10          1           0       -2.109037    0.793950   -1.211599
     11          1           0       -3.124459    0.422780    0.177322
     12          1           0       -1.743893    1.488088    0.361881
     13          1           0       -1.220501   -0.811738    1.232250
     14          1           0       -1.664068   -1.494404   -0.317311
     15          8           0        0.064985   -0.508060   -0.333403
 ---------------------------------------------------------------------

 SCF Done:  E(RHF) =  -232.142216669     A.U. after   12 cycles

 The electronic state is 1-A.
 Alpha  occ. eigenvalues --  -20.54990 -11.26822 -11.26786 -11.21069 -11.20837
 Alpha  occ. eigenvalues --   -1.37453  -1.04077  -0.98588  -0.86177  -0.81326
 Alpha  occ. eigenvalues --   -0.67227  -0.64608  -0.64502  -0.57472  -0.54941
 Alpha  occ. eigenvalues --   -0.54414  -0.52362  -0.50221  -0.48717  -0.45671
 Alpha  occ. eigenvalues --   -0.40759
 Alpha virt. eigenvalues --    0.23498   0.26133   0.28083   0.29371   0.31618
 Alpha virt. eigenvalues --    0.32150   0.32725   0.33937   0.34470   0.36208
 Alpha virt. eigenvalues --    0.38088   0.41778   0.42878   0.46023   0.69921

 Mulliken charges:
               1
     1  C   -0.487215
     2  C    0.021222
     3  C   -0.500684
     4  C    0.016992
     5  H    0.173468
     6  H    0.154189
     7  H    0.172696
     8  H    0.137092
     9  H    0.135610
    10  H    0.174260
    11  H    0.156560
    12  H    0.160931
    13  H    0.136163
    14  H    0.169270
    15  O   -0.620553
 Sum of Mulliken charges =  -0.00000

 Dipole moment (field-independent basis, Debye):
    X=             -0.3920    Y=              0.5924    Z=              1.1216  Tot=              1.3276
 Quadrupole moment (field-independent basis, Debye-Ang):
   XX=            -31.0529   YY=            -33.4790   ZZ=            -33.5171
   XY=              1.2334   XZ=              0.4334   YZ=             -0.4660

 Normal termination of Gaussian 16 at Mon Sep 15 21:33:02 2025.
