 Gaussian 16, Revision A.03,
 Gaussian 16:  ES64L-G16RevA.03 25-Dec-2016

 -------------------
 # hf/6-31G(d) force
 -------------------

 -----------------
 Force calculation
 -----------------
 Symbolic Z-matrix:
 Charge =  0 Multiplicity = 1

                         Standard orientation:
 ---------------------------------------------------------------------
 Center     Atomic      Atomic             Coordinates (Angstroms)
 Number     Number       Type             X           Y           Z
 ---------------------------------------------------------------------
      1          6           0        1.289804   -0.232947    0.000463
      2          6           0        0.001971    0.601970    0.000423
      3          6           0       -1.291565   -0.228696   -0.000891
      4          9           0       -1.542830   -0.674504    1.205483
      5          9           0        2.306545    0.523162    0.339181
      6          9           0        1.506776   -0.726780   -1.195471
      7          9           0       -0.002756    1.370709    1.080603
      8          9           0        0.013119    1.372786   -1.078173
      9          9           0       -2.293952    0.515845   -0.396286
     10          9           0       -1.176114   -1.252383   -0.817107
     11          9           0        1.189073   -1.222386    0.861773
 ---------------------------------------------------------------------

 SCF Done:  E(RHF) =  -909.124218837     A.U. after   11 cycles

 The electronic state is 1-A.
 Alpha  occ. eigenvalues --  -26.37999 -26.37978 -26.37741 -26.37736 -26.37717
 Alpha  occ. eigenvalues --  -26.37710 -26.37461 -26.37453 -11.54742 -11.54737
 Alpha  occ. eigenvalues --  -11.47977  -1.78887  -1.77789  -1.73202  -1.68324
 Alpha  occ. eigenvalues --   -1.67792  -1.67570  -1.67510  -1.66235  -1.12474
 Alpha  occ. eigenvalues --   -1.02625  -0.95615  -0.90806  -0.88952  -0.87682
 Alpha  occ. eigenvalues --   -0.86560  -0.85578  -0.85509  -0.81447  -0.76234
 Alpha  occ. eigenvalues --   -0.75477  -0.74232  -0.74181  -0.73586  -0.73191
 Alpha  occ. eigenvalues --   -0.71833  -0.70247  -0.70211  -0.68461  -0.68448
 Alpha  occ. eigenvalues --   -0.68001  -0.67558  -0.67328  -0.63274  -0.55983
 Alpha virt. eigenvalues --    0.25357   0.25510   0.36911   0.38977   0.41966
 Alpha virt. eigenvalues --    0.44282   0.46879   0.49888   0.51448   0.55750
 Alpha virt. eigenvalues --    0.64271   0.64867   0.68996   0.69057   0.71407

 Mulliken charges:
               1
     1  C    1.086433
     2  C    0.592865
     3  C    1.083653
     4  F   -0.336153
     5  F   -0.340815
     6  F   -0.337822
     7  F   -0.361229
     8  F   -0.361248
     9  F   -0.339295
    10  F   -0.342706
    11  F   -0.343684
 Sum of Mulliken charges =  -0.00000

 Dipole moment (field-independent basis, Debye):
    X=             -0.0074    Y=             -0.0592    Z=             -0.0021  Tot=              0.0597
 Quadrupole moment (field-independent basis, Debye-Ang):
   XX=            -56.7970   YY=            -57.2527   ZZ=            -57.2802
   XY=             -0.0187   XZ=              0.0256   YZ=              0.0015

 Normal termination of Gaussian 16 at Mon Sep 15 21:53:29 2025.
