 Gaussian 16, Revision A.03,
 Gaussian 16:  ES64L-G16RevA.03 25-Dec-2016

 -------------------
 # hf/6-31G(d) force
 -------------------

 -----------------
 Force calculation
 -----------------
 Symbolic Z-matrix:
 Charge =  0 Multiplicity = 1

                         Standard orientation:
 ---------------------------------------------------------------------
 Center     Atomic      Atomic             Coordinates (Angstroms)
 Number     Number       Type             X           Y           Z
 ---------------------------------------------------------------------
      1          6           0        1.298525   -0.234276   -0.001711
      2          6           0        0.000928    0.579858   -0.005471
      3          6           0       -1.300830   -0.229400   -0.003188
      4          9           0       -1.423381   -0.877006    1.130425
      5          9           0        2.312107    0.592775    0.103653
      6          9           0        1.419288   -0.918196   -1.114878
      7          9           0       -0.000421    1.339360    1.082337
      8          9           0        0.009370    1.354222   -1.081657
      9          9           0       -2.314725    0.588917   -0.136472
     10          9           0       -1.318528   -1.092974   -0.991812
     11          9           0        1.317209   -1.064553    1.015318
 ---------------------------------------------------------------------

 SCF Done:  E(RHF) =  -909.125356871     A.U. after   11 cycles

 The electronic state is 1-A.
 Alpha  occ. eigenvalues --  -26.37964 -26.37959 -26.37862 -26.37779 -26.37754
 Alpha  occ. eigenvalues --  -26.37686 -26.37534 -26.37442 -11.54746 -11.54733
 Alpha  occ. eigenvalues --  -11.47919  -1.78913  -1.77859  -1.73180  -1.68389
 Alpha  occ. eigenvalues --   -1.67744  -1.67552  -1.67544  -1.66392  -1.12493
 Alpha  occ. eigenvalues --   -1.02796  -0.95712  -0.90826  -0.88815  -0.87798
 Alpha  occ. eigenvalues --   -0.86542  -0.85647  -0.85513  -0.81564  -0.76149
 Alpha  occ. eigenvalues --   -0.75332  -0.74710  -0.73724  -0.73429  -0.73117
 Alpha  occ. eigenvalues --   -0.72276  -0.70295  -0.70157  -0.68549  -0.68543
 Alpha  occ. eigenvalues --   -0.68356  -0.67420  -0.67297  -0.63268  -0.56013
 Alpha virt. eigenvalues --    0.25269   0.26020   0.37879   0.38969   0.41922
 Alpha virt. eigenvalues --    0.44296   0.45854   0.49134   0.51667   0.55406
 Alpha virt. eigenvalues --    0.64089   0.64917   0.69154   0.69303   0.70421

 Mulliken charges:
               1
     1  C    1.083054
     2  C    0.604005
     3  C    1.080819
     4  F   -0.338122
     5  F   -0.343528
     6  F   -0.338007
     7  F   -0.364572
     8  F   -0.363346
     9  F   -0.340871
    10  F   -0.339634
    11  F   -0.339798
 Sum of Mulliken charges =  -0.00000

 Dipole moment (field-independent basis, Debye):
    X=             -0.0121    Y=             -0.1323    Z=             -0.0352  Tot=              0.1374
 Quadrupole moment (field-independent basis, Debye-Ang):
   XX=            -56.8329   YY=            -57.2266   ZZ=            -57.2935
   XY=             -0.0340   XZ=              0.0225   YZ=             -0.0103

 Normal termination of Gaussian 16 at Mon Sep 15 21:54:56 2025.
