 Gaussian 16, Revision A.03,
 Gaussian 16:  ES64L-G16RevA.03 25-Dec-2016

 -------------------
 # hf/6-31G(d) force
 -------------------

 -----------------
 Force calculation
 -----------------
 Symbolic Z-matrix:
 Charge =  0 Multiplicity = 1

                         Standard orientation:
 ---------------------------------------------------------------------
 Center     Atomic      Atomic             Coordinates (Angstroms)
 Number     Number       Type             X           Y           Z
 ---------------------------------------------------------------------
      1          6           0        1.299291   -0.231635    0.000046
      2          6           0       -0.000007    0.579868    0.000098
      3          6           0       -1.299223   -0.231745   -0.000031
      4          9           0       -1.367769   -0.989597    1.068385
      5          9           0        2.316007    0.595227    0.000915
      6          9           0        1.367622   -0.989735   -1.068084
      7          9           0       -0.000381    1.347466    1.081882
      8          9           0        0.000226    1.347410   -1.081669
      9          9           0       -2.316018    0.595156   -0.001568
     10          9           0       -1.366935   -0.991896   -1.066803
     11          9           0        1.367208   -0.991691    1.066867
 ---------------------------------------------------------------------

 SCF Done:  E(RHF) =  -909.125509182     A.U. after   11 cycles

 The electronic state is 1-A.
 Alpha  occ. eigenvalues --  -26.37884 -26.37883 -26.37881 -26.37880 -26.37723
 Alpha  occ. eigenvalues --  -26.37721 -26.37489 -26.37487 -11.54721 -11.54719
 Alpha  occ. eigenvalues --  -11.47903  -1.78950  -1.77904  -1.73181  -1.68402
 Alpha  occ. eigenvalues --   -1.67749  -1.67571  -1.67558  -1.66408  -1.12507
 Alpha  occ. eigenvalues --   -1.02800  -0.95745  -0.90821  -0.88830  -0.87826
 Alpha  occ. eigenvalues --   -0.86549  -0.85682  -0.85529  -0.81574  -0.76146
 Alpha  occ. eigenvalues --   -0.75266  -0.74841  -0.73611  -0.73443  -0.73122
 Alpha  occ. eigenvalues --   -0.72351  -0.70299  -0.70168  -0.68546  -0.68529
 Alpha  occ. eigenvalues --   -0.68408  -0.67433  -0.67250  -0.63277  -0.55998
 Alpha virt. eigenvalues --    0.25265   0.26092   0.38075   0.38996   0.41980
 Alpha virt. eigenvalues --    0.44418   0.45760   0.49101   0.51683   0.55376
 Alpha virt. eigenvalues --    0.64112   0.64923   0.69193   0.69307   0.70403

 Mulliken charges:
               1
     1  C    1.081140
     2  C    0.605328
     3  C    1.081224
     4  F   -0.338781
     5  F   -0.342038
     6  F   -0.338718
     7  F   -0.364310
     8  F   -0.364292
     9  F   -0.342109
    10  F   -0.338717
    11  F   -0.338727
 Sum of Mulliken charges =  -0.00000

 Dipole moment (field-independent basis, Debye):
    X=              0.0006    Y=             -0.1345    Z=              0.0001  Tot=              0.1345
 Quadrupole moment (field-independent basis, Debye-Ang):
   XX=            -56.8239   YY=            -57.2242   ZZ=            -57.2882
   XY=              0.0008   XZ=              0.0008   YZ=              0.0002

 Optimization completed.
    -- Stationary point found.
 Normal termination of Gaussian 16 at Mon Sep 15 21:56:33 2025.
