 Gaussian 16, Revision A.03,
 Gaussian 16:  ES64L-G16RevA.03 25-Dec-2016

 -------------------
 # hf/6-31G(d) force
 -------------------

 -----------------
 Force calculation
 -----------------
 Symbolic Z-matrix:
 Charge =  0 Multiplicity = 1

                         Standard orientation:
 ---------------------------------------------------------------------
 Center     Atomic      Atomic             Coordinates (Angstroms)
 Number     Number       Type             X           Y           Z
 ---------------------------------------------------------------------
      1          6           0       -1.309472   -0.217940   -0.008170
      2          6           0       -0.010418    0.596894   -0.003148
      3          6           0        1.269069   -0.237764    0.006965
      4          9           0        1.430165   -0.866835   -1.120087
      5          9           0       -2.182000    0.329033   -0.794253
      6          9           0       -1.804453   -0.285377    1.224856
      7          9           0        0.045128    1.341066   -1.101294
      8          9           0        0.006497    1.408713    1.055779
      9          9           0        2.308827    0.564591    0.192376
     10          9           0        1.274335   -1.128146    0.963599
     11          9           0       -1.044619   -1.457172   -0.418074
 ---------------------------------------------------------------------

 SCF Done:  E(RHF) =  -909.119337392     A.U. after   11 cycles

 The electronic state is 1-A.
 Alpha  occ. eigenvalues --  -26.38857 -26.38039 -26.37684 -26.37681 -26.37577
 Alpha  occ. eigenvalues --  -26.37535 -26.37352 -26.36865 -11.55396 -11.54438
 Alpha  occ. eigenvalues --  -11.48262  -1.78876  -1.77760  -1.73040  -1.68598
 Alpha  occ. eigenvalues --   -1.68015  -1.67247  -1.66673  -1.65946  -1.12847
 Alpha  occ. eigenvalues --   -1.02770  -0.95532  -0.90984  -0.88887  -0.87581
 Alpha  occ. eigenvalues --   -0.86448  -0.85753  -0.85173  -0.81158  -0.76270
 Alpha  occ. eigenvalues --   -0.75380  -0.74772  -0.73869  -0.73682  -0.72741
 Alpha  occ. eigenvalues --   -0.71542  -0.70297  -0.70098  -0.68407  -0.68077
 Alpha  occ. eigenvalues --   -0.67875  -0.67581  -0.66854  -0.63572  -0.56626
 Alpha virt. eigenvalues --    0.23681   0.24882   0.35781   0.39060   0.41321
 Alpha virt. eigenvalues --    0.45150   0.47152   0.50598   0.51783   0.55734
 Alpha virt. eigenvalues --    0.64138   0.65270   0.68388   0.68905   0.71555

 Mulliken charges:
               1
     1  C    1.108137
     2  C    0.582501
     3  C    1.091962
     4  F   -0.333162
     5  F   -0.320983
     6  F   -0.348276
     7  F   -0.363029
     8  F   -0.364294
     9  F   -0.356326
    10  F   -0.338743
    11  F   -0.357786
 Sum of Mulliken charges =  -0.00000

 Dipole moment (field-independent basis, Debye):
    X=             -0.3697    Y=             -0.0466    Z=             -0.1483  Tot=              0.4010
 Quadrupole moment (field-independent basis, Debye-Ang):
   XX=            -56.9721   YY=            -57.4124   ZZ=            -57.2398
   XY=             -0.3154   XZ=              0.2319   YZ=             -0.0140

 Normal termination of Gaussian 16 at Mon Sep 15 21:52:10 2025.
