 Gaussian 16, Revision A.03,
 Gaussian 16:  ES64L-G16RevA.03 25-Dec-2016

 -------------------
 # hf/6-31G(d) force
 -------------------

 -----------------
 Force calculation
 -----------------
 Symbolic Z-matrix:
 Charge =  0 Multiplicity = 1

                         Standard orientation:
 ---------------------------------------------------------------------
 Center     Atomic      Atomic             Coordinates (Angstroms)
 Number     Number       Type             X           Y           Z
 ---------------------------------------------------------------------
      1          6           0       -1.300401   -0.221186    0.000895
      2          6           0        0.008457    0.602902    0.007164
      3          6           0        1.293246   -0.240913    0.003838
      4          9           0        1.477756   -0.763979   -1.185389
      5          9           0       -2.254772    0.446791   -0.605934
      6          9           0       -1.685667   -0.486050    1.225092
      7          9           0        0.037503    1.370252   -1.073968
      8          9           0        0.008754    1.376136    1.082908
      9          9           0        2.317577    0.523656    0.291771
     10          9           0        1.216802   -1.204117    0.895172
     11          9           0       -1.118821   -1.356558   -0.637584
 ---------------------------------------------------------------------

 SCF Done:  E(RHF) =  -909.122817607     A.U. after   11 cycles

 The electronic state is 1-A.
 Alpha  occ. eigenvalues --  -26.38043 -26.37904 -26.37736 -26.37733 -26.37671
 Alpha  occ. eigenvalues --  -26.37597 -26.37477 -26.37416 -11.54838 -11.54737
 Alpha  occ. eigenvalues --  -11.48115  -1.78837  -1.77756  -1.73231  -1.68286
 Alpha  occ. eigenvalues --   -1.67782  -1.67514  -1.67440  -1.66171  -1.12260
 Alpha  occ. eigenvalues --   -1.02537  -0.95573  -0.90816  -0.88902  -0.87605
 Alpha  occ. eigenvalues --   -0.86545  -0.85587  -0.85438  -0.81421  -0.76278
 Alpha  occ. eigenvalues --   -0.75429  -0.74435  -0.74010  -0.73746  -0.73116
 Alpha  occ. eigenvalues --   -0.71673  -0.70222  -0.70132  -0.68401  -0.68346
 Alpha  occ. eigenvalues --   -0.67920  -0.67531  -0.67256  -0.63225  -0.55989
 Alpha virt. eigenvalues --    0.24848   0.25336   0.36286   0.39112   0.42107
 Alpha virt. eigenvalues --    0.44397   0.46574   0.50332   0.51332   0.55888
 Alpha virt. eigenvalues --    0.64356   0.64893   0.68725   0.68992   0.71457

 Mulliken charges:
               1
     1  C    1.086218
     2  C    0.585937
     3  C    1.090838
     4  F   -0.340077
     5  F   -0.340593
     6  F   -0.333681
     7  F   -0.360805
     8  F   -0.359617
     9  F   -0.340437
    10  F   -0.343567
    11  F   -0.344216
 Sum of Mulliken charges =  -0.00000

 Dipole moment (field-independent basis, Debye):
    X=              0.0080    Y=             -0.0554    Z=              0.0446  Tot=              0.0716
 Quadrupole moment (field-independent basis, Debye-Ang):
   XX=            -56.9213   YY=            -57.2609   ZZ=            -57.2804
   XY=             -0.0886   XZ=              0.0163   YZ=              0.0102

 Normal termination of Gaussian 16 at Mon Sep 15 21:52:41 2025.
