 Gaussian 16, Revision A.03,
 Gaussian 16:  ES64L-G16RevA.03 25-Dec-2016

 -------------------
 # hf/6-31G(d) force
 -------------------

 -----------------
 Force calculation
 -----------------
 Symbolic Z-matrix:
 Charge =  0 Multiplicity = 1

                         Standard orientation:
 ---------------------------------------------------------------------
 Center     Atomic      Atomic             Coordinates (Angstroms)
 Number     Number       Type             X           Y           Z
 ---------------------------------------------------------------------
      1          6           0        1.320263    0.209810   -0.000422
      2          6           0       -0.018573   -0.590334    0.000384
      3          6           0       -1.295327    0.250839    0.000098
      4          9           0       -1.360792    0.992989   -1.080870
      5          9           0        2.059989   -0.147088   -1.017628
      6          9           0        1.982079   -0.014620    1.104752
      7          9           0       -0.055587   -1.362716   -1.076654
      8          9           0       -0.054086   -1.360359    1.077432
      9          9           0       -2.330965   -0.550855    0.022294
     10          9           0       -1.335827    1.023832    1.059966
     11          9           0        1.090947    1.505273   -0.089333
 ---------------------------------------------------------------------

 SCF Done:  E(RHF) =  -909.120007475     A.U. after   11 cycles

 The electronic state is 1-A.
 Alpha  occ. eigenvalues --  -26.37795 -26.37787 -26.37721 -26.37712 -26.37708
 Alpha  occ. eigenvalues --  -26.37585 -26.37331 -26.37296 -11.54974 -11.54550
 Alpha  occ. eigenvalues --  -11.48093  -1.78895  -1.77828  -1.73185  -1.68339
 Alpha  occ. eigenvalues --   -1.67705  -1.67650  -1.67319  -1.66050  -1.12079
 Alpha  occ. eigenvalues --   -1.02543  -0.95524  -0.91002  -0.88796  -0.87611
 Alpha  occ. eigenvalues --   -0.86556  -0.85776  -0.85282  -0.81359  -0.76228
 Alpha  occ. eigenvalues --   -0.75337  -0.74756  -0.74019  -0.73944  -0.72732
 Alpha  occ. eigenvalues --   -0.71438  -0.70144  -0.70100  -0.68389  -0.68139
 Alpha  occ. eigenvalues --   -0.68046  -0.67198  -0.67019  -0.63147  -0.56120
 Alpha virt. eigenvalues --    0.24240   0.24963   0.35687   0.39746   0.42362
 Alpha virt. eigenvalues --    0.44507   0.46532   0.51150   0.52375   0.56235
 Alpha virt. eigenvalues --    0.64499   0.65056   0.68331   0.69038   0.71170

 Mulliken charges:
               1
     1  C    1.093842
     2  C    0.576813
     3  C    1.099760
     4  F   -0.344339
     5  F   -0.334125
     6  F   -0.333331
     7  F   -0.362709
     8  F   -0.361557
     9  F   -0.342620
    10  F   -0.344257
    11  F   -0.347477
 Sum of Mulliken charges =  -0.00000

 Dipole moment (field-independent basis, Debye):
    X=              0.0909    Y=              0.0582    Z=              0.0051  Tot=              0.1081
 Quadrupole moment (field-independent basis, Debye-Ang):
   XX=            -56.9271   YY=            -57.3133   ZZ=            -57.2601
   XY=             -0.2190   XZ=             -0.0101   YZ=             -0.0040

 Normal termination of Gaussian 16 at Mon Sep 15 21:50:20 2025.
