 Gaussian 16, Revision A.03,
 Gaussian 16:  ES64L-G16RevA.03 25-Dec-2016

 -------------------
 # hf/6-31G(d) force
 -------------------

 -----------------
 Force calculation
 -----------------
 Symbolic Z-matrix:
 Charge =  0 Multiplicity = 1

                         Standard orientation:
 ---------------------------------------------------------------------
 Center     Atomic      Atomic             Coordinates (Angstroms)
 Number     Number       Type             X           Y           Z
 ---------------------------------------------------------------------
      1          6           0        1.316146    0.212193   -0.000607
      2          6           0       -0.015177   -0.593832   -0.000111
      3          6           0       -1.294124    0.252987   -0.000467
      4          9           0       -1.356313    0.993535   -1.081163
      5          9           0        2.058863   -0.145614   -1.017462
      6          9           0        1.981028   -0.013262    1.104299
      7          9           0       -0.056196   -1.364550   -1.075902
      8          9           0       -0.054497   -1.362645    1.077415
      9          9           0       -2.333366   -0.547975    0.021718
     10          9           0       -1.331939    1.024099    1.061016
     11          9           0        1.087857    1.502181   -0.089131
 ---------------------------------------------------------------------

 SCF Done:  E(RHF) =  -909.120036560     A.U. after   11 cycles

 The electronic state is 1-A.
 Alpha  occ. eigenvalues --  -26.37976 -26.37810 -26.37780 -26.37614 -26.37607
 Alpha  occ. eigenvalues --  -26.37509 -26.37335 -26.37317 -11.54934 -11.54546
 Alpha  occ. eigenvalues --  -11.48079  -1.78924  -1.77817  -1.73247  -1.68302
 Alpha  occ. eigenvalues --   -1.67807  -1.67636  -1.67318  -1.66059  -1.12064
 Alpha  occ. eigenvalues --   -1.02502  -0.95542  -0.91002  -0.88840  -0.87608
 Alpha  occ. eigenvalues --   -0.86556  -0.85772  -0.85304  -0.81402  -0.76302
 Alpha  occ. eigenvalues --   -0.75323  -0.74798  -0.74035  -0.73939  -0.72700
 Alpha  occ. eigenvalues --   -0.71442  -0.70154  -0.70113  -0.68383  -0.68153
 Alpha  occ. eigenvalues --   -0.68056  -0.67182  -0.67022  -0.63187  -0.56022
 Alpha virt. eigenvalues --    0.24266   0.25045   0.35722   0.39780   0.42314
 Alpha virt. eigenvalues --    0.44643   0.46599   0.51086   0.52304   0.56256
 Alpha virt. eigenvalues --    0.64596   0.65009   0.68290   0.68988   0.71286

 Mulliken charges:
               1
     1  C    1.092767
     2  C    0.577405
     3  C    1.098288
     4  F   -0.343152
     5  F   -0.336289
     6  F   -0.335190
     7  F   -0.361172
     8  F   -0.361221
     9  F   -0.344552
    10  F   -0.344304
    11  F   -0.342580
 Sum of Mulliken charges =  -0.00000

 Dipole moment (field-independent basis, Debye):
    X=              0.0833    Y=              0.0930    Z=             -0.0090  Tot=              0.1252
 Quadrupole moment (field-independent basis, Debye-Ang):
   XX=            -57.0227   YY=            -57.2421   ZZ=            -57.2665
   XY=             -0.2108   XZ=             -0.0013   YZ=             -0.0054

 Normal termination of Gaussian 16 at Mon Sep 15 21:50:28 2025.
