 Gaussian 16, Revision A.03,
 Gaussian 16:  ES64L-G16RevA.03 25-Dec-2016

 -------------------
 # hf/6-31G(d) force
 -------------------

 -----------------
 Force calculation
 -----------------
 Symbolic Z-matrix:
 Charge =  0 Multiplicity = 1

                         Standard orientation:
 ---------------------------------------------------------------------
 Center     Atomic      Atomic             Coordinates (Angstroms)
 Number     Number       Type             X           Y           Z
 ---------------------------------------------------------------------
      1          6           0        2.329215    0.145438   -0.198504
      2          6           0        0.952565    0.254243    0.428451
      3          6           0       -2.094910    0.597653   -0.152590
      4          6           0       -1.239980   -0.621477    0.170401
      5          1           0        2.659497   -0.887034   -0.206576
      6          1           0        3.049864    0.736180    0.358809
      7          1           0        2.307334    0.503630   -1.221652
      8          1           0        0.633596    1.294025    0.448378
      9          1           0        0.976672   -0.097171    1.459623
     10          1           0       -2.097192    0.780342   -1.221718
     11          1           0       -3.119056    0.431714    0.168905
     12          1           0       -1.733776    1.492022    0.343710
     13          1           0       -1.224782   -0.799656    1.244866
     14          1           0       -1.668531   -1.499314   -0.297292
     15          8           0        0.066879   -0.526235   -0.320450
 ---------------------------------------------------------------------

 SCF Done:  E(RHF) =  -232.142233011     A.U. after   12 cycles

 The electronic state is 1-A.
 Alpha  occ. eigenvalues --  -20.55007 -11.26827 -11.26774 -11.21088 -11.20838
 Alpha  occ. eigenvalues --   -1.37468  -1.04063  -0.98611  -0.86238  -0.81261
 Alpha  occ. eigenvalues --   -0.67247  -0.64712  -0.64381  -0.57580  -0.54856
 Alpha  occ. eigenvalues --   -0.54428  -0.52385  -0.50251  -0.48708  -0.45647
 Alpha  occ. eigenvalues --   -0.40785
 Alpha virt. eigenvalues --    0.23508   0.26145   0.28106   0.29369   0.31552
 Alpha virt. eigenvalues --    0.32152   0.32789   0.33966   0.34479   0.36228
 Alpha virt. eigenvalues --    0.37950   0.41962   0.42776   0.46038   0.69795

 Mulliken charges:
               1
     1  C   -0.486989
     2  C    0.020891
     3  C   -0.502327
     4  C    0.017161
     5  H    0.172966
     6  H    0.154134
     7  H    0.173131
     8  H    0.137551
     9  H    0.135200
    10  H    0.174190
    11  H    0.157171
    12  H    0.161153
    13  H    0.136224
    14  H    0.169684
    15  O   -0.620140
 Sum of Mulliken charges =  -0.00000

 Dipole moment (field-independent basis, Debye):
    X=             -0.4084    Y=              0.6496    Z=              1.0862  Tot=              1.3299
 Quadrupole moment (field-independent basis, Debye-Ang):
   XX=            -31.0612   YY=            -33.5281   ZZ=            -33.4893
   XY=              1.2757   XZ=              0.3990   YZ=             -0.4729

 Optimization completed.
    -- Stationary point found.
 Normal termination of Gaussian 16 at Mon Sep 15 21:33:30 2025.
