 Gaussian 16, Revision A.03,
 Gaussian 16:  ES64L-G16RevA.03 25-Dec-2016

 -------------------
 # hf/6-31G(d) force
 -------------------

 -----------------
 Force calculation
 -----------------
 Symbolic Z-matrix:
 Charge =  0 Multiplicity = 1

                         Standard orientation:
 ---------------------------------------------------------------------
 Center     Atomic      Atomic             Coordinates (Angstroms)
 Number     Number       Type             X           Y           Z
 ---------------------------------------------------------------------
      1          6           0        1.300763   -0.233793    0.000324
      2          6           0       -0.001801    0.577371   -0.007923
      3          6           0       -1.303273   -0.231110   -0.009632
      4          9           0       -1.456136   -0.815506    1.156366
      5          9           0        2.302788    0.604857    0.110042
      6          9           0        1.440223   -0.914924   -1.111819
      7          9           0       -0.019204    1.331779    1.083508
      8          9           0        0.019881    1.361185   -1.076826
      9          9           0       -2.316453    0.575677   -0.215428
     10          9           0       -1.291953   -1.150031   -0.947871
     11          9           0        1.323726   -1.068017    1.013513
 ---------------------------------------------------------------------

 SCF Done:  E(RHF) =  -909.125048882     A.U. after   11 cycles

 The electronic state is 1-A.
 Alpha  occ. eigenvalues --  -26.38039 -26.37993 -26.37841 -26.37769 -26.37710
 Alpha  occ. eigenvalues --  -26.37673 -26.37554 -26.37397 -11.54773 -11.54770
 Alpha  occ. eigenvalues --  -11.47968  -1.78893  -1.77854  -1.73199  -1.68348
 Alpha  occ. eigenvalues --   -1.67747  -1.67577  -1.67514  -1.66344  -1.12458
 Alpha  occ. eigenvalues --   -1.02801  -0.95697  -0.90862  -0.88796  -0.87755
 Alpha  occ. eigenvalues --   -0.86526  -0.85646  -0.85527  -0.81524  -0.76170
 Alpha  occ. eigenvalues --   -0.75386  -0.74607  -0.73801  -0.73424  -0.73135
 Alpha  occ. eigenvalues --   -0.72203  -0.70260  -0.70139  -0.68584  -0.68526
 Alpha  occ. eigenvalues --   -0.68287  -0.67389  -0.67330  -0.63298  -0.56050
 Alpha virt. eigenvalues --    0.25277   0.25798   0.37643   0.38912   0.41986
 Alpha virt. eigenvalues --    0.44269   0.45795   0.49265   0.51695   0.55368
 Alpha virt. eigenvalues --    0.64068   0.64930   0.69055   0.69301   0.70399

 Mulliken charges:
               1
     1  C    1.081852
     2  C    0.602367
     3  C    1.082822
     4  F   -0.339584
     5  F   -0.343044
     6  F   -0.337071
     7  F   -0.364553
     8  F   -0.362793
     9  F   -0.341359
    10  F   -0.339714
    11  F   -0.338924
 Sum of Mulliken charges =  -0.00000

 Dipole moment (field-independent basis, Debye):
    X=             -0.0120    Y=             -0.1400    Z=             -0.0639  Tot=              0.1543
 Quadrupole moment (field-independent basis, Debye-Ang):
   XX=            -56.8638   YY=            -57.2570   ZZ=            -57.2854
   XY=             -0.0342   XZ=              0.0797   YZ=             -0.0090

 Normal termination of Gaussian 16 at Mon Sep 15 21:54:25 2025.
