 Gaussian 16, Revision A.03,
 Gaussian 16:  ES64L-G16RevA.03 25-Dec-2016

 -------------------
 # hf/6-31G(d) force
 -------------------

 -----------------
 Force calculation
 -----------------
 Symbolic Z-matrix:
 Charge =  0 Multiplicity = 1

                         Standard orientation:
 ---------------------------------------------------------------------
 Center     Atomic      Atomic             Coordinates (Angstroms)
 Number     Number       Type             X           Y           Z
 ---------------------------------------------------------------------
      1          6           0        1.286420   -0.238036    0.000552
      2          6           0        0.005670    0.604667   -0.000290
      3          6           0       -1.291318   -0.224299   -0.001350
      4          9           0       -1.557264   -0.648104    1.211491
      5          9           0        2.323824    0.529090    0.287860
      6          9           0        1.469347   -0.779736   -1.189884
      7          9           0        0.006215    1.373807    1.083306
      8          9           0        0.022256    1.377976   -1.080489
      9          9           0       -2.290757    0.511571   -0.422339
     10          9           0       -1.166539   -1.263733   -0.797874
     11          9           0        1.192403   -1.195761    0.908654
 ---------------------------------------------------------------------

 SCF Done:  E(RHF) =  -909.123773947     A.U. after   11 cycles

 The electronic state is 1-A.
 Alpha  occ. eigenvalues --  -26.38113 -26.38010 -26.37799 -26.37793 -26.37760
 Alpha  occ. eigenvalues --  -26.37743 -26.37531 -26.37496 -11.55018 -11.54872
 Alpha  occ. eigenvalues --  -11.48177  -1.78667  -1.77366  -1.73057  -1.68235
 Alpha  occ. eigenvalues --   -1.67744  -1.67424  -1.67255  -1.66175  -1.12581
 Alpha  occ. eigenvalues --   -1.02606  -0.95503  -0.90584  -0.88836  -0.87570
 Alpha  occ. eigenvalues --   -0.86352  -0.85501  -0.85189  -0.81351  -0.76155
 Alpha  occ. eigenvalues --   -0.75416  -0.74189  -0.74129  -0.73502  -0.73082
 Alpha  occ. eigenvalues --   -0.71831  -0.70253  -0.70211  -0.68490  -0.68434
 Alpha  occ. eigenvalues --   -0.68053  -0.67572  -0.67367  -0.63372  -0.56132
 Alpha virt. eigenvalues --    0.25063   0.25178   0.36597   0.38530   0.41254
 Alpha virt. eigenvalues --    0.43730   0.46483   0.49324   0.50950   0.55265
 Alpha virt. eigenvalues --    0.64023   0.64778   0.68964   0.69000   0.71335

 Mulliken charges:
               1
     1  C    1.096644
     2  C    0.597898
     3  C    1.084172
     4  F   -0.336357
     5  F   -0.346661
     6  F   -0.342776
     7  F   -0.362028
     8  F   -0.361845
     9  F   -0.338959
    10  F   -0.342843
    11  F   -0.347244
 Sum of Mulliken charges =  -0.00000

 Dipole moment (field-independent basis, Debye):
    X=             -0.0335    Y=             -0.0593    Z=             -0.0084  Tot=              0.0686
 Quadrupole moment (field-independent basis, Debye-Ang):
   XX=            -56.8685   YY=            -57.2924   ZZ=            -57.3461
   XY=             -0.0637   XZ=              0.0308   YZ=             -0.0026

 Normal termination of Gaussian 16 at Mon Sep 15 21:53:13 2025.
