 Gaussian 16, Revision A.03,
 Gaussian 16:  ES64L-G16RevA.03 25-Dec-2016

 -------------------
 # hf/6-31G(d) force
 -------------------

 -----------------
 Force calculation
 -----------------
 Symbolic Z-matrix:
 Charge =  0 Multiplicity = 1

                         Standard orientation:
 ---------------------------------------------------------------------
 Center     Atomic      Atomic             Coordinates (Angstroms)
 Number     Number       Type             X           Y           Z
 ---------------------------------------------------------------------
      1          6           0        1.313795    0.211168   -0.002521
      2          6           0       -0.018407   -0.597837   -0.000569
      3          6           0       -1.291801    0.254096    0.002681
      4          9           0       -1.351367    0.987892   -1.083683
      5          9           0        2.063876   -0.153763   -1.008238
      6          9           0        1.973254    0.001753    1.113497
      7          9           0       -0.059199   -1.364361   -1.078658
      8          9           0       -0.053510   -1.372094    1.073595
      9          9           0       -2.333113   -0.540681    0.030610
     10          9           0       -1.321345    1.028905    1.058062
     11          9           0        1.079014    1.500732   -0.104913
 ---------------------------------------------------------------------

 SCF Done:  E(RHF) =  -909.120057704     A.U. after   11 cycles

 The electronic state is 1-A.
 Alpha  occ. eigenvalues --  -26.37910 -26.37902 -26.37726 -26.37720 -26.37545
 Alpha  occ. eigenvalues --  -26.37491 -26.37340 -26.37304 -11.54928 -11.54520
 Alpha  occ. eigenvalues --  -11.48054  -1.78918  -1.77828  -1.73249  -1.68309
 Alpha  occ. eigenvalues --   -1.67797  -1.67664  -1.67324  -1.66049  -1.12070
 Alpha  occ. eigenvalues --   -1.02470  -0.95544  -0.90968  -0.88863  -0.87616
 Alpha  occ. eigenvalues --   -0.86561  -0.85762  -0.85326  -0.81391  -0.76300
 Alpha  occ. eigenvalues --   -0.75302  -0.74811  -0.74068  -0.73908  -0.72736
 Alpha  occ. eigenvalues --   -0.71419  -0.70173  -0.70135  -0.68396  -0.68136
 Alpha  occ. eigenvalues --   -0.68069  -0.67168  -0.67022  -0.63176  -0.55968
 Alpha virt. eigenvalues --    0.24304   0.25140   0.35737   0.39832   0.42280
 Alpha virt. eigenvalues --    0.44587   0.46633   0.51146   0.52268   0.56275
 Alpha virt. eigenvalues --    0.64610   0.65003   0.68329   0.68960   0.71453

 Mulliken charges:
               1
     1  C    1.092497
     2  C    0.578012
     3  C    1.097875
     4  F   -0.344683
     5  F   -0.333597
     6  F   -0.338258
     7  F   -0.360936
     8  F   -0.361276
     9  F   -0.343363
    10  F   -0.342051
    11  F   -0.344221
 Sum of Mulliken charges =  -0.00000

 Dipole moment (field-independent basis, Debye):
    X=              0.0596    Y=              0.0812    Z=             -0.0161  Tot=              0.1020
 Quadrupole moment (field-independent basis, Debye-Ang):
   XX=            -56.9755   YY=            -57.2451   ZZ=            -57.2672
   XY=             -0.2277   XZ=             -0.0888   YZ=              0.0140

 Normal termination of Gaussian 16 at Mon Sep 15 21:51:15 2025.
