 Gaussian 16, Revision A.03,
 Gaussian 16:  ES64L-G16RevA.03 25-Dec-2016

 -------------------
 # hf/6-31G(d) force
 -------------------

 -----------------
 Force calculation
 -----------------
 Symbolic Z-matrix:
 Charge =  0 Multiplicity = 1

                         Standard orientation:
 ---------------------------------------------------------------------
 Center     Atomic      Atomic             Coordinates (Angstroms)
 Number     Number       Type             X           Y           Z
 ---------------------------------------------------------------------
      1          6           0        2.318322    0.190199   -0.213135
      2          6           0        0.969508    0.166855    0.478064
      3          6           0       -2.096840    0.613023   -0.122831
      4          6           0       -1.240541   -0.620744    0.134625
      5          1           0        2.643119   -0.822297   -0.426087
      6          1           0        3.063362    0.669719    0.413748
      7          1           0        2.255411    0.735731   -1.148800
      8          1           0        0.637212    1.181054    0.692574
      9          1           0        1.042309   -0.360229    1.429641
     10          1           0       -2.126703    0.825938   -1.186563
     11          1           0       -3.112675    0.442256    0.223326
     12          1           0       -1.717710    1.493513    0.386789
     13          1           0       -1.216959   -0.858160    1.196900
     14          1           0       -1.672973   -1.471973   -0.377465
     15          8           0        0.062864   -0.491444   -0.358051
 ---------------------------------------------------------------------

 SCF Done:  E(RHF) =  -232.142169961     A.U. after   12 cycles

 The electronic state is 1-A.
 Alpha  occ. eigenvalues --  -20.54990 -11.26821 -11.26798 -11.21085 -11.20843
 Alpha  occ. eigenvalues --   -1.37482  -1.04072  -0.98559  -0.86075  -0.81417
 Alpha  occ. eigenvalues --   -0.67226  -0.64669  -0.64438  -0.57414  -0.54996
 Alpha  occ. eigenvalues --   -0.54379  -0.52329  -0.50165  -0.48746  -0.45732
 Alpha  occ. eigenvalues --   -0.40747
 Alpha virt. eigenvalues --    0.23503   0.26126   0.28018   0.29323   0.31717
 Alpha virt. eigenvalues --    0.32163   0.32566   0.33959   0.34533   0.36173
 Alpha virt. eigenvalues --    0.38339   0.41480   0.43071   0.45991   0.70181

 Mulliken charges:
               1
     1  C   -0.487137
     2  C    0.020620
     3  C   -0.498868
     4  C    0.016149
     5  H    0.173830
     6  H    0.154422
     7  H    0.172362
     8  H    0.136421
     9  H    0.136234
    10  H    0.173847
    11  H    0.155771
    12  H    0.161184
    13  H    0.136387
    14  H    0.168958
    15  O   -0.620181
 Sum of Mulliken charges =  -0.00000

 Dipole moment (field-independent basis, Debye):
    X=             -0.3775    Y=              0.5121    Z=              1.1697  Tot=              1.3315
 Quadrupole moment (field-independent basis, Debye-Ang):
   XX=            -31.0552   YY=            -33.4245   ZZ=            -33.5825
   XY=              1.1632   XZ=              0.5051   YZ=             -0.4679

 Normal termination of Gaussian 16 at Mon Sep 15 21:32:41 2025.
