 Gaussian 16, Revision A.03,
 Gaussian 16:  ES64L-G16RevA.03 25-Dec-2016

 -------------------
 # hf/6-31G(d) force
 -------------------

 -----------------
 Force calculation
 -----------------
 Symbolic Z-matrix:
 Charge =  0 Multiplicity = 1

                         Standard orientation:
 ---------------------------------------------------------------------
 Center     Atomic      Atomic             Coordinates (Angstroms)
 Number     Number       Type             X           Y           Z
 ---------------------------------------------------------------------
      1          6           0        1.293860   -0.233953    0.003621
      2          6           0        0.001156    0.590609    0.002403
      3          6           0       -1.297337   -0.229185   -0.001454
      4          9           0       -1.550128   -0.684136    1.200599
      5          9           0        2.309618    0.566211    0.201504
      6          9           0        1.451698   -0.837335   -1.146695
      7          9           0       -0.007376    1.364396    1.078315
      8          9           0        0.019868    1.355956   -1.079342
      9          9           0       -2.290228    0.533323   -0.386276
     10          9           0       -1.198915   -1.246913   -0.826239
     11          9           0        1.267010   -1.136483    0.955086
 ---------------------------------------------------------------------

 SCF Done:  E(RHF) =  -909.124541261     A.U. after   11 cycles

 The electronic state is 1-A.
 Alpha  occ. eigenvalues --  -26.37994 -26.37965 -26.37749 -26.37722 -26.37696
 Alpha  occ. eigenvalues --  -26.37694 -26.37452 -26.37432 -11.54721 -11.54628
 Alpha  occ. eigenvalues --  -11.47897  -1.79017  -1.77958  -1.73238  -1.68374
 Alpha  occ. eigenvalues --   -1.67830  -1.67668  -1.67542  -1.66292  -1.12448
 Alpha  occ. eigenvalues --   -1.02707  -0.95703  -0.90918  -0.88929  -0.87775
 Alpha  occ. eigenvalues --   -0.86610  -0.85654  -0.85633  -0.81502  -0.76220
 Alpha  occ. eigenvalues --   -0.75492  -0.74392  -0.74105  -0.73545  -0.73185
 Alpha  occ. eigenvalues --   -0.71961  -0.70260  -0.70177  -0.68530  -0.68465
 Alpha  occ. eigenvalues --   -0.68104  -0.67477  -0.67297  -0.63265  -0.55963
 Alpha virt. eigenvalues --    0.25468   0.25713   0.37322   0.39131   0.42186
 Alpha virt. eigenvalues --    0.44555   0.46611   0.49760   0.51781   0.55770
 Alpha virt. eigenvalues --    0.64295   0.64941   0.69005   0.69258   0.70936

 Mulliken charges:
               1
     1  C    1.080065
     2  C    0.595133
     3  C    1.081289
     4  F   -0.335263
     5  F   -0.340263
     6  F   -0.335896
     7  F   -0.361815
     8  F   -0.362380
     9  F   -0.339747
    10  F   -0.341195
    11  F   -0.339930
 Sum of Mulliken charges =  -0.00000

 Dipole moment (field-independent basis, Debye):
    X=             -0.0112    Y=             -0.0971    Z=              0.0104  Tot=              0.0983
 Quadrupole moment (field-independent basis, Debye-Ang):
   XX=            -56.7996   YY=            -57.2478   ZZ=            -57.2503
   XY=             -0.0293   XZ=              0.0432   YZ=              0.0063

 Normal termination of Gaussian 16 at Mon Sep 15 21:54:01 2025.
