 Gaussian 16, Revision A.03,
 Gaussian 16:  ES64L-G16RevA.03 25-Dec-2016

 -------------------
 # hf/6-31G(d) force
 -------------------

 -----------------
 Force calculation
 -----------------
 Symbolic Z-matrix:
 Charge =  0 Multiplicity = 1

                         Standard orientation:
 ---------------------------------------------------------------------
 Center     Atomic      Atomic             Coordinates (Angstroms)
 Number     Number       Type             X           Y           Z
 ---------------------------------------------------------------------
      1          6           0        2.320644    0.182059   -0.212027
      2          6           0        0.968033    0.181011    0.471092
      3          6           0       -2.098183    0.609015   -0.129185
      4          6           0       -1.240882   -0.620247    0.141117
      5          1           0        2.642898   -0.835059   -0.399153
      6          1           0        3.063499    0.673096    0.409059
      7          1           0        2.266173    0.703482   -1.160656
      8          1           0        0.641233    1.201762    0.655986
      9          1           0        1.032983   -0.318414    1.436836
     10          1           0       -2.126622    0.814878   -1.193482
     11          1           0       -3.113515    0.442014    0.219406
     12          1           0       -1.718620    1.492911    0.373364
     13          1           0       -1.218066   -0.840911    1.206448
     14          1           0       -1.670670   -1.479475   -0.359571
     15          8           0        0.062880   -0.495664   -0.351777
 ---------------------------------------------------------------------

 SCF Done:  E(RHF) =  -232.142186598     A.U. after   12 cycles

 The electronic state is 1-A.
 Alpha  occ. eigenvalues --  -20.54987 -11.26809 -11.26769 -11.21059 -11.20815
 Alpha  occ. eigenvalues --   -1.37474  -1.04102  -0.98595  -0.86109  -0.81416
 Alpha  occ. eigenvalues --   -0.67241  -0.64662  -0.64481  -0.57441  -0.54985
 Alpha  occ. eigenvalues --   -0.54408  -0.52356  -0.50187  -0.48746  -0.45721
 Alpha  occ. eigenvalues --   -0.40751
 Alpha virt. eigenvalues --    0.23510   0.26136   0.28045   0.29341   0.31726
 Alpha virt. eigenvalues --    0.32171   0.32582   0.33974   0.34555   0.36184
 Alpha virt. eigenvalues --    0.38325   0.41555   0.43042   0.46022   0.70114

 Mulliken charges:
               1
     1  C   -0.487309
     2  C    0.020868
     3  C   -0.499147
     4  C    0.016544
     5  H    0.173874
     6  H    0.154235
     7  H    0.172537
     8  H    0.136528
     9  H    0.136214
    10  H    0.173932
    11  H    0.155937
    12  H    0.161056
    13  H    0.136254
    14  H    0.169065
    15  O   -0.620589
 Sum of Mulliken charges =  -0.00000

 Dipole moment (field-independent basis, Debye):
    X=             -0.3793    Y=              0.5326    Z=              1.1595  Tot=              1.3312
 Quadrupole moment (field-independent basis, Debye-Ang):
   XX=            -31.0537   YY=            -33.4365   ZZ=            -33.5580
   XY=              1.1805   XZ=              0.4810   YZ=             -0.4656

 Normal termination of Gaussian 16 at Mon Sep 15 21:32:43 2025.
