 Gaussian 16, Revision A.03,
 Gaussian 16:  ES64L-G16RevA.03 25-Dec-2016

 -------------------
 # hf/6-31G(d) force
 -------------------

 -----------------
 Force calculation
 -----------------
 Symbolic Z-matrix:
 Charge =  0 Multiplicity = 1

                         Standard orientation:
 ---------------------------------------------------------------------
 Center     Atomic      Atomic             Coordinates (Angstroms)
 Number     Number       Type             X           Y           Z
 ---------------------------------------------------------------------
      1          6           0       -0.760684    0.034998    0.027216
      2          6           0        0.762595   -0.005985   -0.012912
      3          1           0       -1.188957   -0.310019   -0.991666
      4          1           0       -0.791820    1.452106    0.297398
      5          1           0       -1.234334   -0.777693    0.700812
      6          1           0        1.165137   -0.390953    1.031143
      7          1           0        0.666672   -0.944860   -0.630524
      8          1           0        1.371835    0.797340   -0.492988
 ---------------------------------------------------------------------

 SCF Done:  E(RHF) =  -79.1168722163     A.U. after   11 cycles

 The electronic state is 1-A.
 Alpha  occ. eigenvalues --  -11.27087 -11.23405  -1.01680  -0.80010  -0.59200
 Alpha  occ. eigenvalues --   -0.57992  -0.53823  -0.46522  -0.39303
 Alpha virt. eigenvalues --    0.18189   0.25235   0.26108   0.28118   0.33272
 Alpha virt. eigenvalues --    0.35092   0.39812   0.71161   0.74722   0.77776
 Alpha virt. eigenvalues --    0.86210   0.92837   0.96538   1.02022   1.08631

 Mulliken charges:
               1
     1  C   -0.426907
     2  C   -0.446579
     3  H    0.157375
     4  H    0.063898
     5  H    0.174259
     6  H    0.149812
     7  H    0.143930
     8  H    0.184210
 Sum of Mulliken charges =  -0.00000

 Dipole moment (field-independent basis, Debye):
    X=              0.2020    Y=             -0.4776    Z=             -0.1693  Tot=              0.5454
 Quadrupole moment (field-independent basis, Debye-Ang):
   XX=            -16.8238   YY=            -15.2586   ZZ=            -15.7473
   XY=              1.9218   XZ=              0.2633   YZ=             -0.3819

 Normal termination of Gaussian 16 at Mon Sep  1 01:00:50 2025.
